# vtk DataFile Version 1.0
Supersonic flow over a wedge
ASCII

DATASET UNSTRUCTURED_GRID
POINTS 2331 float
0 0 1
0.4 0 1
2 0.409684 1
2 1 1
0 1 1
0.0285714 0 1
0.0571429 0 1
0.0857143 0 1
0.114286 0 1
0.142857 0 1
0.171429 0 1
0.2 0 1
0.228571 0 1
0.257143 0 1
0.285714 0 1
0.314286 0 1
0.342857 0 1
0.371429 0 1
0.428571 0.00731579 1
0.457143 0.0146316 1
0.485714 0.0219474 1
0.514286 0.0292632 1
0.542857 0.036579 1
0.571429 0.0438948 1
0.6 0.0512106 1
0.628571 0.0585263 1
0.657143 0.0658421 1
0.685714 0.0731579 1
0.714286 0.0804737 1
0.742857 0.0877895 1
0.771429 0.0951053 1
0.8 0.102421 1
0.828571 0.109737 1
0.857143 0.117053 1
0.885714 0.124368 1
0.914286 0.131684 1
0.942857 0.139 1
0.971429 0.146316 1
1 0.153632 1
1.02857 0.160947 1
1.05714 0.168263 1
1.08571 0.175579 1
1.11429 0.182895 1
1.14286 0.190211 1
1.17143 0.197526 1
1.2 0.204842 1
1.22857 0.212158 1
1.25714 0.219474 1
1.28571 0.22679 1
1.31429 0.234105 1
1.34286 0.241421 1
1.37143 0.248737 1
1.4 0.256053 1
1.42857 0.263369 1
1.45714 0.270684 1
1.48571 0.278 1
1.51429 0.285316 1
1.54286 0.292632 1
1.57143 0.299948 1
1.6 0.307263 1
1.62857 0.314579 1
1.65714 0.321895 1
1.68571 0.329211 1
1.71429 0.336526 1
1.74286 0.343842 1
1.77143 0.351158 1
1.8 0.358474 1
1.82857 0.36579 1
1.85714 0.373105 1
1.88571 0.380421 1
1.91429 0.387737 1
1.94286 0.395053 1
1.97143 0.402369 1
2 0.4392 1
2 0.468716 1
2 0.498232 1
2 0.527748 1
2 0.557263 1
2 0.586779 1
2 0.616295 1
2 0.645811 1
2 0.675326 1
2 0.704842 1
2 0.734358 1
2 0.763874 1
2 0.79339 1
2 0.822905 1
2 0.852421 1
2 0.881937 1
2 0.911453 1
2 0.940968 1
2 0.970484 1
1.97015 1 1
1.9403 1 1
1.91045 1 1
1.8806 1 1
1.85075 1 1
1.8209 1 1
1.79104 1 1
1.76119 1 1
1.73134 1 1
1.70149 1 1
1.67164 1 1
1.64179 1 1
1.61194 1 1
1.58209 1 1
1.55224 1 1
1.52239 1 1
1.49254 1 1
1.46269 1 1
1.43284 1 1
1.40299 1 1
1.37313 1 1
1.34328 1 1
1.31343 1 1
1.28358 1 1
1.25373 1 1
1.22388 1 1
1.19403 1 1
1.16418 1 1
1.13433 1 1
1.10448 1 1
1.07463 1 1
1.04478 1 1
1.01493 1 1
0.985075 1 1
0.955224 1 1
0.925373 1 1
0.895522 1 1
0.865672 1 1
0.835821 1 1
0.80597 1 1
0.776119 1 1
0.746269 1 1
0.716418 1 1
0.686567 1 1
0.656716 1 1
0.626866 1 1
0.597015 1 1
0.567164 1 1
0.537313 1 1
0.507463 1 1
0.477612 1 1
0.447761 1 1
0.41791 1 1
0.38806 1 1
0.358209 1 1
0.328358 1 1
0.298507 1 1
0.268657 1 1
0.238806 1 1
0.208955 1 1
0.179104 1 1
0.149254 1 1
0.119403 1 1
0.0895522 1 1
0.0597015 1 1
0.0298507 1 1
0 0.970588 1
0 0.941176 1
0 0.911765 1
0 0.882353 1
0 0.852941 1
0 0.823529 1
0 0.794118 1
0 0.764706 1
0 0.735294 1
0 0.705882 1
0 0.676471 1
0 0.647059 1
0 0.617647 1
0 0.588235 1
0 0.558824 1
0 0.529412 1
0 0.5 1
0 0.470588 1
0 0.441176 1
0 0.411765 1
0 0.382353 1
0 0.352941 1
0 0.323529 1
0 0.294118 1
0 0.264706 1
0 0.235294 1
0 0.205882 1
0 0.176471 1
0 0.147059 1
0 0.117647 1
0 0.0882353 1
0 0.0588235 1
0 0.0294118 1
0.0247007 0.514497 1
0.635716 0.0858519 1
0.492917 0.974954 1
0.672066 0.974164 1
0.80795 0.130823 1
0.950807 0.167402 1
0.819708 0.970557 1
1.09404 0.203203 1
0.971613 0.972483 1
1.23474 0.240861 1
0.491647 0.0513484 1
1.12301 0.972412 1
1.37879 0.275723 1
1.26867 0.974887 1
1.52293 0.313583 1
0.0253378 0.36759 1
1.41791 0.974148 1
1.56947 0.973009 1
0.343284 0.974148 1
1.67019 0.348838 1
0.0246681 0.661595 1
1.97444 0.660569 1
0.326682 0.0230189 1
1.68888 0.970982 1
1.78041 0.378798 1
0.0247673 0.249698 1
0.224286 0.97439 1
1.97431 0.778235 1
0.214058 0.0217162 1
0.0247461 0.77932 1
1.80572 0.977259 1
1.97406 0.542076 1
0.579777 0.973936 1
0.72013 0.113124 1
0.0254109 0.161587 1
1.86519 0.400142 1
0.133948 0.974435 1
1.9745 0.865085 1
0.130186 0.0231652 1
0.0254713 0.867647 1
0.408049 0.0280148 1
1.89554 0.974173 1
0.0254417 0.10289 1
0.284453 0.974016 1
0.404665 0.972969 1
1.74479 0.972025 1
1.50509 0.973251 1
1.62687 0.974148 1
1.35482 0.973328 1
1.21113 0.973121 1
1.06007 0.974847 1
0.910448 0.974148 1
0.759251 0.974022 1
0.551299 0.0633261 1
1.97414 0.60111 1
1.97386 0.482835 1
1.97444 0.7196 1
0.0251969 0.426346 1
0.0253324 0.308776 1
0.0254713 0.573529 1
0.86446 0.145432 1
1.00896 0.17988 1
1.14848 0.217803 1
1.29426 0.253318 1
1.43267 0.288879 1
1.57977 0.326968 1
1.72163 0.36507 1
0.0254713 0.720588 1
0.270086 0.0259815 1
0.0778185 0.973697 1
1.92407 0.417326 1
0.0704614 0.0228582 1
1.97336 0.928612 1
0.0252465 0.926412 1
1.95506 0.975014 1
0.0284372 0.0437346 1
0.0259076 0.0734906 1
0.0508344 0.0882159 1
0.0508338 0.11745 1
0.0760602 0.102805 1
0.0761244 0.131958 1
0.101304 0.117342 1
0.101378 0.146456 1
0.12654 0.131845 1
0.126619 0.160943 1
0.151862 0.146229 1
0.151876 0.175445 1
0.177151 0.160703 1
0.177158 0.189972 1
0.202506 0.175138 1
0.202402 0.204382 1
0.227847 0.18963 1
0.227326 0.219069 1
0.253047 0.204374 1
0.252677 0.233839 1
0.27844 0.218983 1
0.278358 0.24859 1
0.303939 0.233578 1
0.303855 0.263231 1
0.329386 0.248212 1
0.329454 0.277604 1
0.354874 0.262808 1
0.354955 0.292192 1
0.329537 0.306944 1
0.355033 0.321588 1
0.38047 0.306819 1
0.380547 0.336242 1
0.406039 0.321407 1
0.406093 0.350891 1
0.380612 0.365686 1
0.406155 0.380361 1
0.431645 0.365561 1
0.431712 0.395043 1
0.457469 0.38024 1
0.457587 0.409733 1
0.431752 0.424554 1
0.457347 0.439248 1
0.483253 0.424535 1
0.483013 0.453964 1
0.508487 0.439118 1
0.508571 0.468658 1
0.534114 0.453824 1
0.45706 0.468904 1
0.534064 0.483584 1
0.55964 0.468719 1
0.559657 0.498373 1
0.585258 0.483478 1
0.585409 0.512911 1
0.611011 0.498028 1
0.559964 0.528087 1
0.611097 0.527585 1
0.636697 0.512719 1
0.63677 0.54231 1
0.662375 0.527444 1
0.662445 0.557051 1
0.688058 0.542182 1
0.688128 0.571803 1
0.713743 0.556929 1
0.713672 0.52731 1
0.739361 0.542052 1
0.739434 0.571678 1
0.765058 0.556798 1
0.765131 0.58643 1
0.790758 0.571548 1
0.662507 0.586673 1
0.790681 0.541916 1
0.816384 0.556663 1
0.816463 0.586301 1
0.842094 0.571411 1
0.842175 0.601056 1
0.867807 0.586161 1
0.867714 0.556518 1
0.893436 0.571267 1
0.893522 0.600909 1
0.919155 0.586012 1
0.919067 0.55637 1
0.944777 0.571129 1
0.944874 0.600764 1
0.970498 0.585877 1
0.611067 0.468497 1
0.970599 0.615516 1
0.996235 0.600607 1
0.996267 0.570921 1
1.02189 0.585689 1
1.02197 0.615346 1
1.0476 0.600436 1
1.04751 0.570784 1
1.07323 0.585524 1
1.07333 0.615179 1
1.09896 0.600263 1
1.09907 0.629924 1
1.1247 0.615002 1
1.1246 0.585347 1
1.15034 0.600081 1
1.15044 0.629739 1
1.17608 0.614816 1
1.17597 0.585161 1
1.20171 0.599892 1
1.20182 0.629552 1
1.22745 0.614623 1
1.22756 0.644287 1
1.2532 0.629356 1
1.25308 0.599696 1
1.27883 0.614425 1
1.27894 0.644089 1
1.30457 0.629154 1
1.30469 0.658823 1
1.33033 0.643882 1
1.33021 0.61422 1
1.35596 0.628943 1
1.35628 0.658545 1
1.38182 0.643526 1
1.3816 0.613984 1
1.40736 0.628699 1
1.40796 0.658105 1
1.43313 0.643393 1
1.43296 0.613781 1
1.45872 0.628489 1
1.45893 0.658013 1
1.48448 0.643184 1
1.48461 0.672841 1
1.51022 0.657908 1
1.51008 0.628262 1
1.53582 0.64297 1
1.53596 0.672619 1
1.56157 0.657674 1
1.56171 0.687321 1
1.58731 0.672372 1
1.58715 0.642731 1
1.61291 0.657428 1
1.61307 0.687068 1
1.63865 0.672115 1
0.534569 0.424375 1
0.2519 0.263724 1
1.6385 0.642485 1
1.66418 0.657124 1
1.66438 0.686788 1
1.68996 0.671842 1
1.69012 0.701477 1
1.68969 0.642145 1
1.7157 0.686531 1
1.71586 0.716162 1
1.69027 0.73112 1
1.71602 0.745812 1
1.74144 0.701211 1
1.69041 0.760779 1
0.354805 0.23341 1
1.71619 0.775482 1
0.176454 0.219309 1
1.69056 0.79046 1
1.71635 0.80517 1
1.74198 0.790193 1
0.27863 0.189548 1
1.74214 0.81988 1
1.76778 0.804901 1
1.6907 0.820158 1
1.6649 0.805436 1
1.76794 0.83459 1
1.79357 0.819597 1
1.79341 0.789928 1
1.81918 0.804618 1
1.81899 0.77496 1
1.81935 0.834288 1
1.66505 0.835146 1
1.63923 0.820415 1
1.84496 0.819308 1
1.84463 0.848131 1
0.202765 0.145758 1
1.63938 0.850144 1
1.61355 0.835406 1
1.74128 0.671592 1
1.76701 0.686263 1
1.76685 0.656655 1
1.79256 0.671321 1
1.79241 0.641728 1
1.81811 0.656385 1
1.81795 0.626803 1
1.79226 0.612145 1
1.8178 0.597227 1
1.79211 0.582573 1
1.81764 0.567659 1
1.79197 0.55301 1
1.81752 0.538113 1
1.79182 0.523457 1
1.76632 0.538323 1
1.76615 0.508804 1
1.74066 0.523669 1
1.74049 0.494155 1
1.71498 0.509037 1
1.84335 0.58233 1
1.84365 0.641457 1
1.45857 0.598844 1
1.43283 0.58414 1
1.45843 0.569209 1
1.43271 0.554507 1
1.4583 0.539584 1
1.43259 0.524888 1
1.45817 0.509974 1
1.43246 0.495284 1
1.48387 0.524661 1
1.48373 0.49506 1
1.50943 0.50974 1
1.40689 0.510192 1
1.40677 0.480594 1
1.38119 0.495499 1
1.38107 0.465911 1
1.35551 0.48081 1
1.35538 0.451226 1
1.32982 0.466123 1
1.32969 0.436539 1
1.30414 0.451434 1
1.30402 0.421864 1
1.27846 0.436752 1
1.27834 0.407187 1
1.25278 0.422073 1
1.40667 0.451001 1
1.5093 0.480152 1
1.53498 0.494826 1
1.25266 0.392501 1
1.22711 0.407391 1
1.22723 0.436965 1
1.20156 0.422283 1
1.20144 0.392709 1
1.17589 0.407599 1
1.17577 0.37803 1
1.15022 0.392916 1
1.15034 0.42249 1
1.12467 0.407803 1
1.12455 0.378232 1
1.099 0.393115 1
1.09889 0.363548 1
1.07334 0.378429 1
1.0732 0.34886 1
1.04767 0.363742 1
1.04779 0.39331 1
1.02213 0.378624 1
1.022 0.349057 1
0.996464 0.363934 1
0.996576 0.393501 1
0.970915 0.37881 1
0.970807 0.349244 1
0.945258 0.364117 1
0.945155 0.334555 1
0.919606 0.349426 1
0.919708 0.37899 1
0.894055 0.364295 1
0.893954 0.334735 1
0.868405 0.3496 1
0.868302 0.320051 1
0.842755 0.334915 1
0.842857 0.364467 1
0.817212 0.34977 1
0.817108 0.320224 1
0.791571 0.335075 1
0.79147 0.305529 1
0.765934 0.320383 1
0.765839 0.290842 1
0.740303 0.305695 1
0.740398 0.335236 1
0.714768 0.320544 1
0.714677 0.291005 1
0.689143 0.305853 1
0.689051 0.276322 1
0.663525 0.291165 1
0.663433 0.26164 1
0.637912 0.276481 1
0.63782 0.246962 1
0.612305 0.261798 1
0.612224 0.232275 1
0.586701 0.247121 1
0.817312 0.379324 1
0.586648 0.217575 1
0.561125 0.232426 1
0.561202 0.261941 1
0.535614 0.247268 1
0.535535 0.217764 1
0.637993 0.305999 1
0.714856 0.350086 1
0.510028 0.232604 1
0.509961 0.203093 1
1.12478 0.437383 1
0.79137 0.275987 1
1.53486 0.465267 1
1.56054 0.479941 1
1.50917 0.45058 1
0.688973 0.246786 1
1.56067 0.5095 1
1.32959 0.406965 1
0.484461 0.217938 1
[...]
CELL_DATA 4469
SCALARS density float
LOOKUP_TABLE default
3.71897
1.22238
1.22238
1.22238
1.27641
1.22238
1.22238
2.21888
1.22238
2.22415
1.22238
3.67026
1.22238
1.22238
2.88962
2.30943
1.22238
1.22238
2.21631
1.22238
1.22238
1.22238
2.21437
2.2183
2.22183
2.64652
2.67597
1.67704
1.22238
2.21479
2.22193
2.21804
1.65821
1.22238
1.22238
1.28695
1.22238
1.27632
1.97608
2.21974
1.22238
2.21634
2.21631
1.22238
2.17689
2.21783
1.22238
2.21766
2.2173
1.22238
1.22238
1.22238
2.23938
1.22238
1.22238
1.31061
1.22238
1.22238
1.22238
2.85527
2.21627
1.22238
1.22238
1.22238
1.22238
1.22238
1.22238
2.21755
1.22238
2.20141
2.21664
1.22238
1.22238
2.21885
1.22238
2.21969
2.21819
1.22238
2.22324
2.22156
2.21616
1.22238
1.22238
2.22759
1.22238
1.22238
2.19563
2.2213
1.22238
1.22238
1.22238
1.22238
1.22238
2.22992
1.22238
1.22238
2.22636
1.22238
1.22238
2.23013
1.6511
2.22413
2.23048
2.21827
2.21335
3.251
2.22932
2.23067
2.21671
2.22809
1.22238
2.23086
2.20117
2.21888
3.71543
2.23105
1.68164
2.21946
1.75818
3.46023
2.23115
2.21819
2.2313
1.22238
2.22053
1.22238
1.22238
2.2256
2.229
2.21843
1.22238
2.21426
2.23128
2.21747
2.23135
2.23128
1.22238
1.22238
2.21723
1.22238
2.21946
2.56461
1.22238
1.22238
1.22238
1.22238
2.21695
2.23094
1.22238
1.22238
1.22238
1.54382
1.22238
1.76902
2.21878
1.22238
1.22238
1.22238
2.23096
2.23083
1.22238
2.23083
1.22238
1.22238
1.22238
1.22238
1.22238
2.2169
1.22238
1.22238
1.22238
1.22238
1.22238
1.22238
1.22238
1.22238
1.22238
1.22238
2.22415
1.22238
2.22254
1.22238
1.22238
1.22238
1.22238
1.22238
1.22238
1.22238
1.22238
1.22238
2.27478
1.22238
2.2786
1.22238
1.22238
1.22238
1.22238
2.21918
2.21765
1.22238
1.22238
1.22238
1.22238
1.22238
1.22238
1.22238
1.78841
1.77788
1.22238
1.22238
1.22238
2.80163
1.22238
1.22238
1.22238
1.22238
1.22238
1.22238
1.22238
1.22238
1.22238
1.22238
1.22238
1.22238
1.22238
2.2162
1.22238
2.19193
1.22238
1.22238
1.22238
1.22238
1.22238
1.22238
1.22238
2.21772
1.22238
1.22238
1.22238
1.22238
1.22238
1.22238
1.22238
1.22238
1.22238
1.22238
1.22238
1.22238
1.22238
1.22238
1.22238
1.22238
1.22238
2.3048
1.22238
1.22238
2.21795
1.22238
1.22238
1.22238
1.22238
2.22155
1.22238
2.22477
1.22238
1.22238
1.22238
1.22238
1.22238
1.22238
2.25084
1.22238
1.22238
1.22238
1.22238
1.22238
1.22238
1.22238
2.2216
1.22238
2.2194
3.2182
1.22238
1.26736
1.22238
1.22238
2.15266
1.22238
1.22238
1.22238
1.22238
1.22238
1.25194
1.22238
1.22238
1.22238
1.22721
1.22238
1.22238
1.22238
1.22238
1.22238
1.22238
2.20091
1.22238
1.22238
2.22843
1.22238
1.22238
1.22238
1.22238
1.22238
2.22162
1.22238
1.22238
1.22238
1.22238
1.22238
2.22597
2.22386
2.22378
1.22238
1.22238
1.22238
1.22238
1.22238
1.22238
1.22238
1.22238
1.22238
1.41657
1.22238
2.21762
1.22238
2.22941
1.22238
2.2302
3.65294
1.22238
1.22238
1.22238
1.22238
1.22238
2.22552
2.23087
1.22238
1.22238
1.22238
1.22238
1.22238
1.22238
1.22238
1.22238
1.22238
1.22238
2.22418
2.22641
1.22238
1.22238
1.22238
1.22238
1.22238
1.22238
1.22238
1.22238
2.22834
1.22238
2.23112
1.22238
1.22238
1.22238
1.22238
2.22057
1.22238
1.22238
1.22238
1.22238
1.22238
1.22238
1.22238
1.22238
1.22238
1.22238
2.23125
1.22238
2.23142
1.22238
2.23144
2.23105
1.22238
2.06601
1.22238
1.22238
2.2216
1.22238
2.23059
2.22256
1.22238
2.22813
1.22238
2.22935
1.22238
1.22238
1.22238
1.22238
1.22238
1.22238
2.22778
1.22238
1.22238
1.22238
2.23126
2.22591
1.22238
2.22242
1.22238
1.22238
1.22238
2.23125
1.22238
1.22238
1.22238
2.25483
2.23024
2.22043
2.23121
2.2223
2.23115
1.22238
2.22791
1.22238
1.22238
1.22238
1.22238
2.22369
1.22238
1.22238
1.22238
1.22238
1.22238
1.75788
2.23112
1.22238
1.22238
2.22598
1.22238
1.22238
2.23062
1.22238
2.22956
2.23105
2.22355
1.22238
1.22238
2.22567
1.22238
2.23122
1.22238
1.22238
1.22238
1.22238
2.23142
2.22559
1.76223
1.22238
2.22445
1.22238
2.05814
1.22238
1.22238
2.22663
1.22238
1.22238
2.22915
1.22238
1.22238
1.22238
2.22411
2.22881
1.22238
2.23144
1.22238
2.22786
1.22238
2.22618
2.09317
2.23094
1.22238
2.22484
2.22834
1.22238
1.22238
1.22238
1.22238
2.23075
2.23108
1.22238
2.22878
2.22648
2.2287
2.23059
1.22238
1.22238
2.2311
1.22238
2.23031
2.22844
1.22238
1.22238
2.22875
1.22238
1.22238
2.13163
1.22238
2.21867
1.22238
1.22238
1.22238
2.22986
1.22238
1.22238
1.22238
1.22238
1.22238
1.22238
1.22238
1.22238
2.2311
1.22238
1.22238
1.22238
2.2283
2.23135
1.22238
1.22238
1.22238
2.23112
1.22238
1.22238
1.22238
1.22238
1.22238
2.22569
1.22238
2.23015
1.22238
2.22746
1.22238
1.22238
1.22238
2.23117
1.22238
1.22238
2.23028
2.22556
1.22238
2.23146
1.22238
1.22238
1.22238
2.22985
2.23014
2.21475
2.22917
2.23115
1.22238
1.22238
1.22238
1.22238
2.23006
1.22238
1.22238
2.21686
1.22238
2.23093
3.65214
1.22238
1.22238
1.22238
3.43908
1.22238
2.20171
2.2312
2.23113
2.23028
2.22999
1.22238
1.22238
2.23042
1.22238
1.22238
2.22044
1.22238
1.22238
2.23
1.22238
1.22238
2.23042
3.71768
1.22238
1.22238
2.22579
1.22238
2.23111
2.23092
1.22238
2.23015
1.22238
2.23126
1.22238
1.22238
1.22238
3.71277
1.22238
2.22939
2.07563
2.23125
1.22238
2.22645
1.22238
1.22238
3.69495
1.22238
2.23097
1.22238
2.22592
2.23006
2.22983
1.22238
1.22238
1.22238
2.231
1.22238
2.23126
1.22238
1.22238
2.23136
2.23122
1.22238
1.22238
1.22238
1.22238
2.23122
1.22238
1.22238
1.22238
2.23136
1.22238
1.22238
2.23129
1.22238
1.22238
1.22238
2.23127
2.23067
1.22238
1.22238
1.22238
2.2302
1.22238
1.22238
1.22238
1.22238
1.22238
1.22238
2.22365
1.22238
1.22238
1.22238
2.2307
2.22544
1.22238
1.22238
1.22238
1.22238
2.23126
2.22842
2.23026
1.22238
2.22958
1.22238
1.29229
2.22695
1.22238
1.22238
1.22238
1.22238
2.17461
1.22238
1.22238
2.23144
2.22233
1.22238
1.22238
2.22627
2.2305
2.23081
1.22238
1.22238
2.23239
1.22238
1.22238
1.28161
1.22238
1.22238
1.22238
1.22238
1.22238
1.22238
2.23138
1.22238
1.22238
1.22238
3.63399
2.23136
1.22238
1.22238
1.22238
2.23288
1.22238
1.22238
1.22238
1.22238
1.22238
2.23081
1.22238
2.22648
1.22238
2.23143
1.22238
2.21736
2.23136
1.22238
1.22238
1.22238
2.23133
1.22238
3.69305
2.23145
1.22238
1.22238
1.22238
2.2228
3.1953
3.48581
2.2291
2.23092
2.22913
2.23102
1.22238
1.22238
2.23131
1.22238
1.22238
1.22238
2.23065
1.22238
2.23105
1.22238
1.68472
1.22238
1.22238
2.23115
1.22238
3.71726
3.23858
1.22238
1.22238
2.23066
1.22238
2.22848
1.22238
1.33801
1.35443
1.22238
2.23101
1.22238
1.22238
1.22238
1.22238
2.23127
3.70562
1.22238
2.23107
1.22238
2.23113
1.22238
2.23047
1.22238
1.22238
1.22238
1.22238
2.23014
1.22238
1.22238
1.22238
2.2314
2.22775
1.22238
2.23168
1.22238
1.22238
1.22238
1.22238
1.22238
1.22238
1.22238
1.22238
1.22238
2.23097
1.22238
2.1786
1.22238
2.23075
1.22238
1.22238
1.22238
1.22238
2.23068
2.22354
2.22491
2.23107
1.22238
2.22954
1.22238
1.43254
1.22238
1.22238
1.22238
1.22238
1.22238
2.23025
2.23056
3.43959
1.22238
1.22238
2.22995
1.22238
1.22238
1.22238
2.22884
1.22238
1.22238
1.22238
1.22238
2.2316
1.22238
1.22238
1.22238
2.23105
1.22238
1.22238
1.22238
1.22238
1.22238
1.22238
1.22238
2.23104
1.22238
1.56546
1.22238
1.22238
2.23169
2.23134
1.22238
2.21844
2.23111
1.22238
2.23291
1.22238
1.22238
1.22238
1.22238
1.22238
1.22238
1.22238
1.22238
1.22238
1.22238
1.22238
2.23082
1.22238
3.6315
2.2299
1.22238
2.23049
1.22238
2.23119
1.22238
1.22238
1.22238
3.50554
1.22238
1.22238
2.23103
1.22238
1.22238
2.23069
1.22238
1.22238
1.22238
2.23009
1.22238
2.23087
1.22238
2.23096
1.22238
1.22238
1.95525
2.22198
3.71195
1.22238
1.22238
1.22238
3.40447
1.22238
2.23055
1.22238
1.22238
1.22238
1.22238
1.22238
2.2312
1.22238
2.23128
1.22238
1.22238
1.22238
1.41223
1.22238
1.22238
3.70939
2.23095
1.22238
1.22238
1.22238
1.22238
2.22982
1.22238
2.23013
1.22238
1.22238
2.22845
1.22238
1.22238
1.22238
2.23091
2.23202
1.22238
2.23032
1.22238
2.23115
1.22238
2.23035
1.22238
1.22238
1.22238
2.2307
1.22238
1.22238
1.26503
1.22238
2.23125
2.23095
1.22238
1.22238
1.22238
2.20038
1.22238
1.22238
1.22238
1.22238
1.22238
1.22238
1.22238
1.22238
2.22347
2.23157
1.22238
1.22238
1.22238
2.2304
1.22238
2.23075
3.62063
2.22111
1.22238
2.23224
2.23134
2.23487
1.22238
2.22448
1.22238
2.23086
1.22238
1.22238
2.23151
2.23107
2.23068
2.23078
1.22238
2.21991
2.23084
2.23158
1.22238
1.22238
1.22238
2.20927
2.2389
1.22238
1.22238
2.23076
1.22238
2.22673
2.23107
1.22238
1.22238
2.22357
1.22238
2.22348
1.22238
2.22797
2.23087
1.22238
1.22238
2.23116
1.22238
1.22238
1.22238
2.22246
1.22238
1.38605
1.22238
1.22238
2.22024
1.22238
1.22238
1.94318
1.22238
2.21796
1.22238
1.22238
1.22238
1.22238
1.22238
1.2446
1.22238
2.22698
3.7074
1.22238
2.23076
2.23157
1.22238
2.18722
1.22238
1.22238
1.22238
1.22238
1.22238
1.22238
1.22238
1.22238
2.2315
2.23102
1.22238
1.22238
1.22238
2.22217
1.22238
2.23104
3.53978
1.22238
1.22238
1.22238
1.22238
2.16014
1.22238
1.22238
1.22238
2.23126
1.22238
2.23106
1.22238
2.23235
2.23092
2.22383
2.22716
2.23088
1.22238
2.2303
1.22238
1.22238
1.22238
2.23118
2.23142
2.4233
1.22238
2.23465
1.22238
1.22238
1.22238
1.22238
2.23049
1.22238
1.22238
1.22238
1.22238
1.39765
1.22238
2.22719
2.22368
1.22238
1.22238
1.22238
2.22294
1.22238
1.22238
1.22238
1.22238
1.22238
2.2246
2.05278
1.22238
2.23101
1.22238
1.22238
1.22238
2.23056
1.22238
1.22238
1.22238
2.22791
1.22238
1.22238
1.22238
2.22643
1.22238
1.22238
1.22238
1.22238
1.22238
1.22238
1.50397
1.22238
1.22238
1.22238
1.22238
2.22181
2.23212
2.23092
1.22238
2.22755
2.23097
1.22238
1.22238
1.22238
1.22238
1.22238
1.22238
1.22238
1.22238
1.22238
1.22238
2.22487
1.22238
1.22238
1.22238
1.96751
1.22281
1.22238
1.22238
2.23114
2.2309
1.22238
1.22238
1.22238
2.23068
2.22996
1.22238
1.22238
1.22238
2.8499
2.27904
1.22238
3.19457
1.22238
2.23115
1.22238
2.2348
1.22238
1.22238
1.22238
1.22238
1.22238
1.22238
2.23075
1.22238
1.22238
1.94739
1.22238
1.22238
2.21616
1.22238
1.22238
1.22238
1.3272
1.22238
1.22238
1.22238
2.19131
2.23147
1.22238
2.22107
1.22238
1.22238
2.23126
2.23102
1.22238
1.22238
2.23136
2.23229
1.22238
1.22238
1.22238
1.22238
2.23103
1.22238
1.22238
1.22238
1.22238
2.23103
1.22238
2.2309
2.23138
1.22238
1.22238
1.22238
2.23147
1.22238
2.23128
1.22238
2.23103
1.95872
1.22238
1.34213
2.23087
2.22906
2.22443
2.22544
1.22238
2.23098
1.22238
1.22238
1.22238
1.22238
2.23113
1.22238
1.22238
2.23125
2.23158
2.23125
2.23118
1.22238
1.22238
1.22238
1.22238
1.22238
1.22238
1.22238
1.22238
2.22957
1.22238
1.22238
2.22836
2.22998
1.22238
1.22238
2.23132
2.23155
2.22774
2.22516
1.22238
1.22238
2.23115
1.22238
1.22238
1.22238
1.22238
1.22238
1.22238
1.22238
2.23108
2.2317
1.22238
1.22238
2.20103
1.61928
2.23128
1.22238
2.23117
2.2313
2.23133
2.23092
1.22238
1.22238
1.22238
1.22238
2.23096
1.22238
1.22238
1.22238
1.22238
1.22238
1.22238
1.22238
1.28328
2.22954
2.23108
1.22238
2.22713
2.23118
2.23097
2.23098
2.23015
1.22238
1.22238
2.23051
1.22238
1.22238
2.23146
2.23114
2.23098
2.23086
1.22238
2.23114
2.22994
2.23083
1.22238
1.22238
2.22288
2.23099
2.23099
2.23117
2.22364
2.23127
1.22238
2.23127
1.22238
2.23058
1.22238
1.22238
1.22238
2.21301
1.22238
1.22238
2.23131
1.22238
1.22238
2.22777
2.23057
2.1577
1.22238
1.22238
2.22419
2.22365
2.23057
2.23114
1.22238
1.22238
2.2235
1.22238
1.22238
1.22238
1.22238
2.22718
2.22918
2.22288
2.23067
2.23114
1.22238
2.23057
2.22873
1.22238
1.87829
1.60282
2.22909
2.22261
2.22337
1.22238
1.22238
2.22634
2.23062
2.23039
1.22238
1.22238
2.2309
2.2212
1.22238
1.22238
2.23064
1.22238
2.22205
2.23095
1.22238
2.22319
1.49057
1.22238
1.22238
1.22238
2.22595
2.22256
1.22238
2.23075
2.23099
2.22952
1.22238
1.22238
2.22151
1.22238
2.22346
2.23105
2.22997
1.22238
2.22874
1.22238
1.22238
1.22238
2.22464
2.23141
1.22238
2.2287
2.22956
1.22238
2.23131
2.22714
1.22238
1.22238
2.21138
1.22238
2.22757
2.22669
2.23148
1.22238
2.23105
2.23128
1.22238
1.22238
1.22238
1.22238
1.22238
2.23113
1.22238
2.23132
1.22238
1.22238
1.22238
2.22244
2.22173
2.23084
2.23149
1.22238
1.22238
2.2245
1.22238
1.22238
1.22238
1.22238
2.23112
2.23132
2.23071
1.22238
1.22238
2.23115
2.23135
2.23606
2.23098
1.22238
2.22871
1.22238
1.22238
1.22238
2.23275
2.23063
1.22238
1.22238
1.86697
1.22238
1.22238
2.22536
2.23008
1.22238
1.22238
1.22238
1.22238
1.22238
1.22238
1.22238
1.22238
1.22238
1.67391
1.22238
1.22238
2.23325
1.22238
2.23137
1.52637
1.22238
1.22238
1.50141
1.3865
1.22238
2.22516
2.22835
2.22284
2.22795
1.22238
1.22238
1.22238
2.23112
2.23076
1.22238
2.23251
1.22238
1.22238
2.22439
2.22345
2.23026
2.22898
2.23131
1.22238
2.22452
1.22238
1.22238
1.22238
2.23136
1.22238
1.22238
1.22238
1.46983
2.22617
2.23292
1.22238
2.22978
2.23105
1.22238
1.22238
2.21913
1.22238
2.22971
2.22547
2.22493
2.231
1.22238
1.88548
1.22238
1.22238
2.231
1.22238
1.22238
2.23119
2.23115
1.22238
1.22238
2.23104
1.22238
1.22238
1.22238
1.22238
2.2312
1.22238
2.23053
2.23091
1.22238
1.22238
1.22238
1.22238
1.22238
1.22238
2.00534
1.22238
2.23169
1.22238
1.22238
1.22238
2.81501
2.22871
2.23125
2.23104
1.61424
2.22699
1.78641
1.22238
1.22238
1.22238
1.22238
2.22794
1.22238
2.23117
1.22238
1.22238
1.22238
1.22238
2.22424
1.22238
1.22238
2.23097
2.23057
2.2304
2.2307
2.23087
1.22238
1.22238
1.22238
1.23391
1.22238
1.22238
1.22238
1.22238
1.22238
1.22238
1.22238
1.22238
1.22238
1.22238
1.22238
1.22238
1.22238
1.22238
1.22238
1.22238
1.22238
2.22759
1.22238
2.23166
2.21
1.22238
2.18977
2.23095
1.22238
1.22238
2.22226
1.22238
1.22238
2.22936
1.22238
1.22238
2.23139
2.23102
2.23117
1.22238
1.22238
1.22238
1.22238
1.72063
1.22238
1.22238
2.231
1.22238
1.22238
1.40682
1.22238
1.22238
1.22238
2.22523
2.22457
2.23083
1.22238
2.22925
2.23009
1.22238
2.23019
1.22238
1.22238
1.22238
2.23121
2.22724
1.22238
2.01706
2.23075
2.22262
1.22238
1.22238
2.22554
1.22238
1.22238
1.22238
2.231
2.23074
1.22238
1.22238
2.23065
1.22238
1.22238
2.22486
1.22238
1.22238
1.22238
1.22238
1.22238
1.22238
1.22238
2.23086
2.23136
1.23678
1.22238
2.23124
2.22872
2.22296
1.22238
1.22238
2.22371
2.22173
2.2309
2.23113
1.22238
2.22977
1.22238
1.22238
1.22238
2.14409
2.22534
2.22705
1.22238
2.22425
1.22238
1.22238
2.2225
2.22657
1.22238
2.23091
2.23123
2.03833
2.22645
2.22644
2.23
1.22238
2.14838
2.22598
2.22719
1.22238
2.22636
2.23116
2.22372
2.23039
2.22406
1.22238
1.22238
2.23129
1.22238
1.22439
2.2271
1.22238
1.22238
2.23138
2.23402
2.23069
1.22238
1.22238
1.22238
1.22238
2.22767
1.24576
1.22238
2.22656
1.22238
2.22472
1.22238
2.23238
1.22238
2.231
2.08256
1.71201
2.22782
1.22238
1.28751
1.22238
1.22238
2.23092
2.23068
1.22238
2.23074
1.22238
1.22238
1.22238
1.22238
1.22238
1.22238
1.22238
1.22238
1.22238
1.22238
1.22238
1.22238
1.22238
1.22238
1.22238
1.22238
2.23132
2.23603
1.22238
1.22238
2.23069
2.23169
1.22238
1.22238
1.22238
1.22238
2.22869
1.22238
2.23115
1.22238
1.22238
2.23048
1.22238
2.22629
1.22238
2.23123
2.23114
2.22423
1.22238
2.22278
2.23147
1.22238
2.23379
2.23101
2.22472
1.22238
2.22524
2.22705
1.6316
1.22238
1.22238
2.22991
1.22238
1.22238
2.23103
2.22525
1.22238
1.72361
2.22267
1.22238
1.22238
2.21812
2.12182
2.0653
1.22238
1.22238
1.22398
1.22238
1.22238
2.16772
1.22238
2.23095
1.22238
1.22238
2.22767
2.22837
2.22195
1.22238
2.21603
1.22238
1.22238
1.22238
1.22238
1.22238
2.22549
1.22238
2.2247
1.22238
2.229
2.23138
1.22238
1.27116
2.22932
1.22238
2.2273
2.23119
1.22238
1.22238
2.22207
2.21122
2.23013
2.23114
1.22238
1.22238
1.22238
1.22238
2.23288
1.22238
1.22238
2.21463
1.22238
1.22238
1.58361
1.22238
1.22238
2.2329
1.22238
1.22238
1.22238
2.22828
1.22238
1.22238
1.52213
1.22238
2.23313
1.22238
2.22859
2.23033
1.22238
1.22238
1.39765
1.22238
1.22238
1.96914
1.22238
1.22238
1.733
1.24132
2.18999
1.22238
1.22238
1.22238
1.39053
2.20401
1.22238
2.11482
2.19075
2.23115
1.22238
1.22238
1.22238
2.22942
1.22238
1.22238
2.23319
2.02693
2.23481
1.22238
2.22886
2.22961
1.22238
1.22238
1.90563
2.20476
2.2199
2.22075
1.22238
1.77655
1.28075
2.23099
2.22913
1.87394
1.22238
2.23171
2.23124
2.22282
2.23157
1.22238
1.22238
1.22238
1.22238
1.22238
1.22238
2.23872
2.2311
2.23125
1.90939
1.22238
2.20501
2.20562
2.231
2.23127
2.23135
1.22238
2.23112
1.22238
1.22238
2.23544
2.23125
1.22238
2.22354
1.22238
1.22238
1.22238
1.22238
2.23032
2.23119
2.16
1.22238
2.23157
2.23092
2.16388
1.832
2.23127
1.22238
1.22238
2.23095
1.22238
2.23318
1.22238
2.22623
1.22238
1.22238
2.23541
1.22238
1.2907
2.23086
1.22238
1.22238
2.22706
2.22695
2.22229
2.22909
2.2304
1.22238
2.23114
2.23182
2.23078
1.22238
2.22833
1.22238
2.23065
2.2313
2.23066
2.22923
2.28592
1.22238
2.23101
2.23548
2.23102
1.22238
1.24677
2.23113
2.22232
2.23118
1.22238
2.23088
2.23154
2.23143
2.23076
2.23075
1.22238
1.22238
1.22238
2.23084
2.23145
1.22238
2.22713
1.22238
2.16967
2.2307
1.22238
2.17267
2.23112
1.22238
2.23128
1.22238
3.69169
1.22238
2.22633
1.22238
2.23284
1.22238
1.22238
2.22686
1.22238
2.2161
1.22238
2.23247
2.22797
1.22238
1.22238
2.22806
2.21646
1.22238
2.2264
1.22238
2.22526
2.22592
2.23108
2.23142
1.22238
2.22653
2.23101
1.98807
2.22701
2.23097
2.23108
2.23104
2.23081
1.22238
2.23132
1.22238
1.22238
1.22238
2.23087
2.23065
2.16912
1.22238
2.22827
2.23062
1.22238
2.07843
1.22238
1.22238
1.22238
2.23105
2.23058
1.91741
2.25754
2.22464
1.22238
1.22238
1.22238
2.22416
2.23099
2.22612
1.22238
2.23092
2.22956
1.22238
1.22238
1.22238
2.23091
1.22238
1.27731
2.22973
1.22238
2.22971
1.22238
2.222
2.2279
1.22238
1.22607
1.22238
2.23053
1.22238
1.22238
2.22543
2.23098
2.24207
2.18649
2.08795
1.90027
1.22238
1.22238
1.22238
2.03284
2.23126
1.22238
2.07293
2.23032
2.23308
2.23091
2.23103
1.22238
1.22238
1.22238
2.22921
1.22238
2.23155
1.22238
2.22273
1.22238
2.22857
1.22238
2.11104
1.22238
1.22238
2.23262
1.22238
1.22238
1.22238
2.23014
1.22238
2.22407
1.45971
1.22238
1.22238
1.22238
2.21417
2.22884
2.21431
1.8886
1.22238
2.22345
2.23084
1.22238
2.23243
2.22835
1.22238
1.22238
2.10277
1.82142
1.22238
1.22238
1.22238
1.22238
1.22238
1.22238
1.22238
1.22238
1.22238
2.23113
1.3251
2.23118
1.22238
2.13208
2.21439
1.22238
1.22238
1.22238
2.22912
1.22238
1.22238
1.22238
1.22238
2.22942
1.22238
1.22238
1.22238
1.39603
2.23137
1.22238
2.04423
1.81145
1.22238
1.22238
2.2311
2.23098
2.23066
1.22238
1.22238
1.22238
2.21436
1.22238
1.22238
1.22238
2.22413
1.22238
1.22238
1.22238
2.23111
1.22238
2.23149
2.21474
1.22238
1.22238
1.22238
2.231
2.21384
1.22238
1.22238
1.22238
1.22238
2.23067
2.22983
1.22238
1.28301
1.22238
1.2226
1.97588
1.22238
1.22838
1.22238
1.22238
1.22238
2.23151
1.22238
1.22238
1.22238
1.22238
2.23141
1.22238
2.23107
1.22238
1.22238
2.23087
1.22238
1.22238
1.22238
2.23087
1.22238
1.22238
1.22238
2.22943
1.22238
1.22238
1.22238
1.37386
2.23246
1.22238
1.22238
1.22238
1.22238
2.23102
1.22238
1.22238
2.23099
2.2313
2.22977
1.22238
1.22238
2.16786
1.22238
2.19661
1.22238
2.23135
1.22238
1.22238
2.23317
1.22238
1.22238
1.22238
3.71866
1.22238
1.22238
2.23116
1.22238
1.22238
1.22238
1.22238
2.22951
1.22238
1.22238
1.22238
1.22238
2.23066
1.22238
2.23079
2.23125
1.22238
1.34848
2.22787
2.21379
2.23112
1.22238
2.21432
1.22238
1.22238
1.22238
2.23033
1.22238
1.22238
1.22238
1.22238
1.22238
1.22238
2.23173
1.22238
1.22238
1.22238
1.22238
2.23118
1.22238
1.22238
1.22238
1.22238
1.22238
2.21427
1.22238
2.11677
1.22238
1.22238
2.19836
2.22875
2.19782
1.22238
2.21405
2.2291
1.22238
1.22238
1.22238
1.22238
2.19901
2.19909
2.23127
1.22238
2.20033
2.22825
1.22238
2.21434
1.22238
1.22238
1.22238
2.20404
1.22238
2.22749
1.22238
1.22238
1.22238
2.20358
2.2316
1.22238
2.22832
2.22598
1.22238
1.22238
2.20462
1.22238
2.20457
1.24969
1.22238
1.22238
2.20572
2.23116
1.22238
1.22238
1.22238
2.20879
1.22238
1.22238
2.2262
2.23109
1.22238
1.22238
1.22238
2.23285
2.20849
2.23054
2.23043
2.22651
1.22238
1.5136
2.2089
1.22238
1.22238
1.22238
2.22136
2.23127
2.23169
1.22238
1.22238
2.21251
2.22796
2.20933
1.22238
2.05504
1.22238
1.22238
1.26307
2.231
2.23133
2.21149
2.23125
2.23166
2.23131
1.22238
1.22238
2.21161
2.21153
1.22238
1.22238
1.22238
2.22911
1.22238
2.23105
2.23178
2.22961
1.22238
1.22238
1.22238
2.2312
1.22238
2.21237
1.22238
1.22238
1.22238
2.22958
2.23141
2.2315
1.22238
1.22238
2.04207
1.22238
1.22238
2.16527
1.22238
1.22238
1.22238
1.22238
1.22238
2.1891
2.23099
1.22238
1.22238
1.22238
2.23112
1.22238
2.23125
1.22238
1.22238
1.22238
1.22238
1.22238
2.2182
2.21372
1.22238
1.22238
1.22238
1.22238
2.23086
1.22238
1.22238
1.22238
1.22238
1.22238
1.25029