# vtk DataFile Version 1.0
Supersonic flow over a wedge
ASCII

DATASET UNSTRUCTURED_GRID
POINTS 864 float
0 0 1
0.4 0 1
2 0.4287 1
2 1 1
0 1 1
0.05 0 1
0.1 0 1
0.15 0 1
0.2 0 1
0.25 0 1
0.3 0 1
0.35 0 1
0.447059 0.0126088 1
0.494118 0.0252176 1
0.541176 0.0378265 1
0.588235 0.0504353 1
0.635294 0.0630441 1
0.682353 0.0756529 1
0.729412 0.0882618 1
0.776471 0.100871 1
0.823529 0.113479 1
0.870588 0.126088 1
0.917647 0.138697 1
0.964706 0.151306 1
1.01176 0.163915 1
1.05882 0.176524 1
1.10588 0.189132 1
1.15294 0.201741 1
1.2 0.21435 1
1.24706 0.226959 1
1.29412 0.239568 1
1.34118 0.252176 1
1.38824 0.264785 1
1.43529 0.277394 1
1.48235 0.290003 1
1.52941 0.302612 1
1.57647 0.315221 1
1.62353 0.327829 1
1.67059 0.340438 1
1.71765 0.353047 1
1.76471 0.365656 1
1.81176 0.378265 1
1.85882 0.390874 1
1.90588 0.403482 1
1.95294 0.416091 1
2 0.476308 1
2 0.523917 1
2 0.571525 1
2 0.619133 1
2 0.666742 1
2 0.71435 1
2 0.761958 1
2 0.809567 1
2 0.857175 1
2 0.904783 1
2 0.952392 1
1.95 1 1
1.9 1 1
1.85 1 1
1.8 1 1
1.75 1 1
1.7 1 1
1.65 1 1
1.6 1 1
1.55 1 1
1.5 1 1
1.45 1 1
1.4 1 1
1.35 1 1
1.3 1 1
1.25 1 1
1.2 1 1
1.15 1 1
1.1 1 1
1.05 1 1
1 1 1
0.95 1 1
0.9 1 1
0.85 1 1
0.8 1 1
0.75 1 1
0.7 1 1
0.65 1 1
0.6 1 1
0.55 1 1
0.5 1 1
0.45 1 1
0.4 1 1
0.35 1 1
0.3 1 1
0.25 1 1
0.2 1 1
0.15 1 1
0.1 1 1
0.05 1 1
0 0.95 1
0 0.9 1
0 0.85 1
0 0.8 1
0 0.75 1
0 0.7 1
0 0.65 1
0 0.6 1
0 0.55 1
0 0.5 1
0 0.45 1
0 0.4 1
0 0.35 1
0 0.3 1
0 0.25 1
0 0.2 1
0 0.15 1
0 0.1 1
0 0.05 1
0.601614 0.0959908 1
0.48154 0.958438 1
0.787109 0.145026 1
0.675077 0.956677 1
0.971714 0.199653 1
0.0432965 0.524987 1
0.875098 0.956635 1
1.16267 0.249363 1
1.075 0.956699 1
1.35491 0.294755 1
1.54274 0.346236 1
1.2774 0.958864 1
1.625 0.956699 1
0.325272 0.0432439 1
1.72965 0.406301 1
1.95825 0.696401 1
0.0426558 0.325065 1
0.0426504 0.723875 1
1.47603 0.957621 1
0.325 0.956699 1
1.77445 0.957205 1
0.46349 0.0507648 1
0.175613 0.044096 1
0.172916 0.955081 1
1.87344 0.436405 1
1.96048 0.837396 1
0.0442959 0.175208 1
1.37721 0.958656 1
1.17758 0.959073 1
0.975026 0.956712 1
0.775119 0.956575 1
0.578675 0.960273 1
0.0428762 0.425005 1
0.0418258 0.828612 1
0.0433013 0.625 1
0.694963 0.122711 1
0.892802 0.168702 1
1.07203 0.221343 1
1.2574 0.270161 1
1.4484 0.326139 1
1.6323 0.374178 1
1.95911 0.59523 1
1.87265 0.956706 1
1.96843 0.501072 1
0.075 0.956699 1
0.0776017 0.0433559 1
1.96287 0.927954 1
0.37404 0.0433733 1
0.350355 0.0861124 1
0.300827 0.0866745 1
0.326217 0.129277 1
0.276684 0.129948 1
0.302081 0.172497 1
0.351592 0.171801 1
0.327476 0.215011 1
0.376967 0.214283 1
0.352908 0.257448 1
0.402309 0.256776 1
0.378268 0.299906 1
0.427654 0.299222 1
0.403608 0.342361 1
0.453002 0.341673 1
0.428924 0.384836 1
0.478342 0.384122 1
0.454267 0.427309 1
0.503712 0.426596 1
0.479606 0.469808 1
0.5291 0.469087 1
0.504984 0.512345 1
0.554502 0.5116 1
0.455442 0.513063 1
0.578615 0.468359 1
0.60401 0.510838 1
0.628099 0.467626 1
0.653478 0.510097 1
0.629452 0.553283 1
0.678888 0.552547 1
0.702946 0.509345 1
0.728344 0.55177 1
0.752401 0.508581 1
0.777785 0.550997 1
0.480846 0.555637 1
0.431252 0.556353 1
0.801809 0.507829 1
0.827181 0.550218 1
0.851196 0.507073 1
0.876556 0.549439 1
0.900567 0.506311 1
0.925923 0.54867 1
0.901909 0.591826 1
0.951303 0.591034 1
0.975311 0.547858 1
1.00069 0.59023 1
1.02468 0.547078 1
1.05005 0.589426 1
0.704454 0.595086 1
0.379339 0.385289 1
1.07403 0.546293 1
1.0994 0.588621 1
0.456679 0.598964 1
0.407037 0.599687 1
1.1232 0.545382 1
1.1487 0.587816 1
1.12477 0.630962 1
1.17414 0.630096 1
1.19801 0.587009 1
1.22352 0.62929 1
1.24739 0.586171 1
1.27286 0.628423 1
1.29685 0.585352 1
1.32222 0.627563 1
0.927287 0.634241 1
1.34621 0.584528 1
1.37156 0.626766 1
0.776421 0.465409 1
0.43249 0.642342 1
0.382803 0.643063 1
0.357341 0.600368 1
0.333076 0.643769 1
0.502708 0.341072 1
1.3955 0.583684 1
1.42087 0.625886 1
1.4448 0.582862 1
1.47017 0.625141 1
1.44624 0.668274 1
1.49603 0.667171 1
1.51957 0.62426 1
1.54494 0.666539 1
1.56882 0.623436 1
1.59426 0.665565 1
1.29828 0.670829 1
1.04863 0.503997 1
1.1508 0.67344 1
0.408278 0.685758 1
0.457994 0.685022 1
1.61809 0.622592 1
1.6435 0.664714 1
1.6673 0.621908 1
1.69259 0.663865 1
0.307588 0.601025 1
0.303326 0.257921 1
1.27121 0.542995 1
1.66883 0.706778 1
1.71787 0.705882 1
0.283312 0.644487 1
1.52138 0.709473 1
1.7165 0.621428 1
0.433778 0.728468 1
0.483525 0.727726 1
1.69416 0.748799 1
1.74315 0.747816 1
0.25857 0.601285 1
1.41944 0.540639 1
0.875226 0.463987 1
1.54343 0.581179 1
0.451956 0.256197 1
0.2525 0.173245 1
0.384018 0.729206 1
1.02607 0.632534 1
0.282224 0.558185 1
0.803237 0.593413 1
1.76677 0.705046 1
1.64154 0.57971 1
0.23352 0.645218 1
0.259016 0.687979 1
0.409529 0.771952 1
0.359749 0.772688 1
0.233223 0.558431 1
0.256785 0.515415 1
1.79197 0.746812 1
0.507753 0.684271 1
0.533277 0.726974 1
0.50905 0.770445 1
0.558814 0.769679 1
0.583029 0.726212 1
0.608566 0.768908 1
1.7195 0.790778 1
1.67035 0.791768 1
0.208705 0.51509 1
0.231466 0.472552 1
0.209206 0.689619 1
0.234727 0.731683 1
0.602732 0.425193 1
0.65213 0.424471 1
0.626835 0.382099 1
0.676114 0.38136 1
0.650881 0.339076 1
0.700068 0.338339 1
0.674875 0.296103 1
0.723988 0.295392 1
0.625714 0.29682 1
0.749203 0.33757 1
0.773423 0.294485 1
0.798353 0.336758 1
0.924517 0.463236 1
0.899235 0.420959 1
0.948428 0.420195 1
0.923201 0.37802 1
0.972307 0.377243 1
0.632766 0.725454 1
0.6583 0.768135 1
0.682479 0.724689 1
0.708017 0.767362 1
0.732195 0.723932 1
0.75772 0.766591 1
0.781897 0.72318 1
0.80741 0.765822 1
0.385268 0.815479 1
0.335486 0.816235 1
0.405846 0.513737 1
1.81555 0.704227 1
0.184872 0.732442 1
0.210441 0.775129 1
0.733544 0.810038 1
1.69578 0.83392 1
1.74493 0.832721 1
0.178501 0.556107 1
0.631891 0.810371 1
1.8406 0.745815 1
0.534592 0.813177 1
1.64646 0.834912 1
0.82319 0.293906 1
0.183121 0.472367 1
0.206 0.429782 1
0.64966 0.253917 1
0.600581 0.254618 1
0.94713 0.335134 1
0.996174 0.334364 1
1.02136 0.37644 1
0.401319 0.171342 1
1.04521 0.333605 1
1.07038 0.375645 1
0.255433 0.429282 1
0.229996 0.386532 1
0.18025 0.387202 1
0.204501 0.343806 1
0.607243 0.682788 1
0.167479 0.694454 1
0.831359 0.722219 1
0.857036 0.765038 1
0.832919 0.808473 1
0.882583 0.805316 1
0.906681 0.763894 1
0.932313 0.806453 1
0.956407 0.763348 1
0.982018 0.80602 1
1.00617 0.762657 1
1.03172 0.805301 1
1.62099 0.79265 1
1.59754 0.835564 1
1.05556 0.761562 1
1.08135 0.804469 1
0.160535 0.775871 1
0.186115 0.818719 1
0.624537 0.211787 1
0.57547 0.212457 1
0.748288 0.252222 1
0.157201 0.343 1
0.179445 0.300966 1
1.00757 0.848772 1
1.0942 0.332823 1
1.11941 0.37485 1
0.904911 0.851948 1
0.227047 0.130619 1
0.202848 0.17384 1
0.177321 0.131251 1
0.153072 0.174279 1
0.127502 0.131876 1
0.362299 0.861374 1
0.314921 0.864922 1
0.411044 0.858657 1
0.279656 0.385892 1
1.79043 0.662499 1
1.839 0.661672 1
1.81403 0.620126 1
0.849749 0.421576 1
1.46865 0.539819 1
1.44335 0.497622 1
1.49246 0.496808 1
1.39419 0.498448 1
1.41804 0.455515 1
1.36898 0.456311 1
1.39283 0.413463 1
1.34382 0.41425 1
1.44185 0.412644 1
1.31997 0.457099 1
1.29445 0.414934 1
0.306399 0.514806 1
0.551496 0.255295 1
0.526368 0.213113 1
1.10487 0.760662 1
1.13098 0.803645 1
1.1069 0.847158 1
1.15662 0.846358 1
1.1808 0.802904 1
1.20636 0.845554 1
1.2305 0.8021 1
1.25607 0.844736 1
1.28019 0.80128 1
1.30577 0.843913 1
1.32989 0.800466 1
1.35547 0.843091 1
1.37959 0.799658 1
1.40515 0.842269 1
1.42927 0.798848 1
1.45364 0.84079 1
1.35404 0.757072 1
1.20496 0.759497 1
0.506423 0.598227 1
1.81719 0.788402 1
1.86571 0.787418 1
1.84232 0.829747 1
1.47765 0.796615 1
1.0957 0.417729 1
1.14469 0.416873 1
1.16843 0.37403 1
1.19384 0.416077 1
1.21817 0.373316 1
1.26996 0.457683 1
0.877935 0.634954 1
1.10113 0.673958 1
1.16991 0.458945 1
1.86247 0.619345 1
1.83755 0.577772 1
0.756338 0.680556 1
0.305136 0.428719 1
1.78905 0.578548 1
1.81266 0.536084 1
1.76402 0.536846 1
1.78767 0.494321 1
1.73888 0.495123 1
1.86124 0.535477 1
0.673633 0.211392 1
0.980676 0.720071 1
1.72128 0.875832 1
0.228243 0.216045 1
0.132747 0.299638 1
1.57198 0.793248 1
1.50169 0.836767 1
1.77094 0.87338 1
0.136726 0.819117 1
0.971009 0.292324 1
0.922023 0.293067 1
0.549635 0.170706 1
0.501133 0.171005 1
0.163977 0.863639 1
0.212912 0.862569 1
0.128669 0.381733 1
0.52624 0.12627 1
0.388008 0.904503 1
1.88903 0.744915 1
0.114989 0.861179 1
1.19239 0.333982 1
1.45213 0.754305 1
0.84837 0.336311 1
1.43033 0.883916 1
0.903805 0.677644 1
0.77464 0.379818 1
0.577451 0.382798 1
0.70146 0.423702 1
0.973838 0.462461 1
0.484814 0.813932 1
0.510349 0.8567 1
0.560181 0.855938 1
1.33134 0.886562 1
0.334279 0.729939 1
0.228896 0.300658 1
0.260244 0.774324 1
1.71484 0.537249 1
1.68926 0.494823 1
1.59563 0.750315 1
1.31863 0.373768 1
0.107961 0.777403 1
1.23194 0.888222 1
0.153565 0.258237 1
0.103741 0.258897 1
1.13247 0.889864 1
1.88585 0.661873 1
1.6226 0.877859 1
1.57383 0.877058 1
0.477061 0.127899 1
1.08048 0.88349 1
1.88855 0.827673 1
1.86745 0.870721 1
0.535926 0.899491 1
0.650639 0.161382 1
0.399128 0.0883082 1
0.434092 0.900128 1
1.06724 0.292992 1
0.583284 0.891492 1
0.144063 0.90907 1
1.12007 0.285 1
1.76056 0.451755 1
1.81126 0.451723 1
1.91735 0.86662 1
0.947034 0.248036 1
0.897972 0.250744 1
1.24285 0.33642 1
0.103195 0.175492 1
0.995266 0.24923 1
0.0776226 0.132653 1
1.41902 0.36962 1
0.41474 0.949937 1
0.91937 0.208569 1
1.91501 0.619141 1
0.0759719 0.221041 1
0.101933 0.0884725 1
0.0470991 0.0827906 1
1.21892 0.458147 1
1.19548 0.50122 1
1.26965 0.372966 1
1.29292 0.331653 1
0.953025 0.676802 1
0.201546 0.0877386 1
0.45138 0.170951 1
0.0884413 0.90463 1
1.24491 0.500464 1
0.502358 0.255992 1
1.24417 0.415521 1
0.275432 0.0434815 1
0.329552 0.385638 1
0.304026 0.342771 1
1.82489 0.956762 1
0.225647 0.0437875 1
1.91108 0.784992 1
1.93397 0.742155 1
0.873084 0.293751 1
0.848243 0.252201 1
0.798425 0.251493 1
0.823414 0.209667 1
0.772906 0.213951 1
0.722954 0.212885 1
1.29537 0.499957 1
1.88536 0.576358 1
1.90638 0.537351 1
1.88045 0.488325 1
1.83302 0.49433 1
1.91601 0.450286 1
1.8637 0.703535 1
[...]
CELL_DATA 1612
SCALARS density float
LOOKUP_TABLE default
1.22238
1.22238
1.22238
1.22238
1.22238
2.19895
1.22238
1.22238
1.22238
1.22238
1.22238
1.31458
1.22238
1.22238
1.22238
1.31582
2.18911
1.22238
2.24815
2.24449
2.24697
1.22238
2.24701
1.22238
2.24873
2.25252
1.22238
2.24806
1.22238
1.22238
1.22238
2.24695
1.22238
2.24695
1.22238
1.22238
2.24698
1.22238
1.22238
1.22238
1.22238
1.22238
1.22238
1.22238
2.25133
1.22238
2.24434
2.24435
1.22238
1.22238
1.22238
1.22238
1.22238
1.36857
1.75798
2.25706
2.25631
2.25219
1.22238
1.22238
2.28765
1.36597
2.25099
2.26612
1.22238
2.25077
2.25124
2.25111
2.24997
2.25094
1.22238
1.22238
1.22238
2.25094
2.24726
1.22238
1.22238
1.22238
3.28236
2.24984
1.22238
2.22276
2.24707
1.22238
1.22238
2.30324
2.14324
1.23686
1.22238
2.25173
1.22238
2.25186
1.22238
1.25061
2.2467
2.25518
1.22238
2.25665
2.24815
2.24521
1.22238
2.70267
2.10095
2.24691
2.20758
2.25212
1.22238
2.26349
2.25886
2.25771
2.25768
2.26092
2.20123
2.22197
1.90743
1.57842
1.92384
1.43892
2.1055
1.22238
1.65816
1.65307
2.26313
1.22238
1.22238
2.60884
1.22238
1.22238
1.22336
2.26261
1.22238
1.22238
2.26438
1.22238
2.26606
1.22238
1.91346
3.63362
1.3082
1.22238
3.35016
2.05853
1.44173
2.25119
1.22638
1.86819
1.22238
3.59873
1.22238
1.30936
2.26064
1.45529
2.25655
2.25752
1.58649
1.22238
1.22246
2.12288
2.01538
1.22238
2.24683
2.26975
1.22238
1.22238
1.22282
1.91556
1.46881
1.22448
2.00795
1.22238
1.22238
1.22238
2.22706
1.22238
1.22238
1.22238
1.22238
1.22238
1.24153
1.22238
2.26148
1.22283
2.26387
2.26248
1.22246
2.26442
1.22238
1.99185
1.22238
1.22238
1.22238
1.22239
1.22238
1.23141
2.4624
1.22238
1.22238
2.26823
1.22238
1.22238
2.26706
1.22238
1.22238
1.22238
1.22238
2.26268
1.22238
1.30113
1.22643
2.28165
1.22238
1.22239
1.22238
3.60619
1.22238
2.22897
1.22238
2.15016
1.22238
1.80648
2.25495
1.22238
2.19058
1.22238
2.06691
1.22239
1.22242
1.22238
1.22238
1.22238
2.12905
2.27451
1.22238
1.22238
2.25684
2.2774
1.65504
2.26125
2.25089
1.22238
2.27392
1.22238
1.22238
2.25884
1.22238
1.22238
1.22238
1.22238
1.30231
2.2748
1.22238
1.22238
1.22238
2.1542
1.22238
1.22238
2.37109
1.22238
2.26208
2.26841
1.22238
3.85363
1.22238
1.22238
2.27013
1.22248
1.22371
1.22238
2.1808
2.723
1.22238
1.78904
2.26309
1.62867
1.79791
3.23057
1.22238
1.22238
2.28056
1.22238
2.24377
2.0389
2.2589
2.31306
1.22238
1.42404
2.29196
1.22238
2.30806
2.28943
2.27663
2.27449
2.26932
2.27097
1.41112
1.22238
1.22238
1.22238
2.25916
2.27653
2.19924
2.26987
2.27812
2.2689
2.25256
1.22238
1.22238
2.31632
1.22238
2.27707
1.22238
1.51811
1.22238
2.25622
2.27286
1.23128
1.37917
1.85972
1.22238
1.24204
2.19757
1.22238
2.27221
1.37749
2.2547
1.22238
3.24845
3.6726
1.22238
1.22373
2.27229
1.28398
1.22238
2.25363
2.25814
2.2643
2.27335
1.26206
1.22238
2.25447
2.25406
1.22238
1.22544
2.04512
2.27296
1.22238
2.27208
2.28116
1.24182
2.26838
2.27148
1.22238
1.22238
1.64914
1.22238
1.22238
1.22242
1.3404
2.25761
2.25785
1.25901
1.22238
2.26897
1.2943
2.25899
1.22238
2.26972
1.22238
2.61257
1.51195
1.22297
1.22238
1.70504
1.22238
2.27391
1.22238
1.55193
1.48345
2.2732
1.22434
1.226
1.66568
1.22238
1.22266
2.27409
1.50495
1.22248
1.2224
1.22238
2.26226
1.22238
1.22238
1.23825
1.76436
1.29527
2.26836
1.22238
1.22238
1.26265
1.22238
1.22293
1.22644
1.22238
2.25591
1.22238
1.75333
1.22238
2.27652
1.22949
1.60831
1.30563
2.27485
2.23451
2.08127
1.75701
1.22261
2.27028
1.22238
2.26286
1.69844
2.27189
2.2687
2.27159
2.25864
1.62225
2.73761
1.95431
2.26554
1.35483
1.22238
1.22238
1.22238
2.26775
1.22238
2.18746
2.27026
1.22238
2.25602
1.85346
2.27317
1.22238
2.26197
1.26886
2.26164
2.27044
1.22296
1.22238
1.24651
2.25786
1.22238
2.25583
2.2708
2.24684
1.50779
2.26949
1.24175
2.26069
1.22242
2.25495
1.22238
1.29796
1.33871
2.20327
1.22238
1.40853
1.96468
1.22238
1.22259
2.25695
2.25312
2.25436
1.5509
1.22238
2.24888
1.29488
1.42705
1.86055
1.75985
1.22953
1.22238
1.26442
1.45173
1.29384
1.22238
1.22238
2.26229
1.61341
1.22238
1.2265
1.32632
1.25766
1.23667
2.25946
1.22238
2.25788
1.22238
1.22238
1.22242
2.25908
2.06315
2.29349
1.994
1.22431
2.25858
1.22238
1.22238
1.24684
2.26029
1.22238
1.22238
1.22238
1.22238
1.22238
1.36614
1.22238
2.25272
1.22259
1.22238
1.22238
1.22238
1.22238
1.22238
1.22238
1.22238
1.23438
1.38189
1.22238
1.22238
1.4803
1.22238
2.26856
1.22344
2.25737
1.22238
2.25513
1.76329
1.22238
1.22238
1.22238
1.22238
1.22245
1.22238
1.2224
2.27333
1.22238
2.25618
1.52217
1.22238
1.22239
1.26948
2.26577
1.75526
1.22238
1.22963
1.37458
1.22238
1.22264
1.22238
1.22238
1.58707
2.26221
1.22238
1.22238
1.22238
1.22238
2.26646
2.26657
2.25818
1.22425
2.2366
1.23877
1.22238
2.25973
1.22238
2.25631
2.27289
1.22238
2.26605
2.24577
2.2655
1.22384
1.23178
2.37807
1.24031
1.22238
2.25007
1.71033
1.22238
1.35683
1.22238
1.22238
1.22248
1.22238
2.25751
1.22238
1.22239
1.22238
1.22238
1.22238
2.26183
1.28621
1.22238
1.22238
1.22238
1.40032
2.26694
2.26006
1.22238
1.60661
2.25351
1.22238
2.21626
1.22238
2.1258
1.9505
1.22238
1.22238
1.22238
1.22238
1.22238
1.22238
1.22238
1.22238
1.22238
1.22238
1.22238
1.22238
1.22238
1.22238
2.24238
2.27093
1.67199
2.27026
2.26454
1.22238
1.48258
1.22238
1.2385
1.90577
1.22238
1.22238
1.22238
1.22238
1.22238
1.22238
1.29928
1.33287
1.22238
1.22238
1.27247
2.26095
1.26151
2.26553
1.22238
1.22238
1.23484
2.27488
1.22238
1.22248
1.22597
1.2224
1.22285
1.22238
1.22737
1.49986
1.24089
1.22261
1.22277
1.22238
1.2224
2.27177
1.22238
1.70649
1.22238
1.22238
1.22238
2.27059
1.22238
1.22238
1.22238
1.25905
1.22369
1.22238
1.22238
1.22238
2.26141
1.22238
1.22238
1.22238
1.22238
1.22238
1.22238
1.22238
1.22238
1.30431
1.22238
2.16807
1.22238
1.70494
1.22238
1.22238
1.22294
1.22238
1.22238
1.25824
1.22333
1.22238
1.22238
1.22238
1.22238
1.22238
1.22238
1.22238
1.22238
1.22238
1.22238
1.22238
1.22238
1.22238
1.81352
1.22238
1.2224
1.22238
1.47613
2.19998
2.26755
1.54608
1.22238
1.22238
1.22263
1.22238
1.22238
1.22238
1.22238
1.74773
1.22238
2.26043
1.22238
1.22238
2.27266
1.22238
1.22238
2.17261
1.22238
1.22422
1.22238
1.22238
1.22238
1.22238
1.22238
2.27114
1.23164
2.26354
1.22238
1.22238
2.26524
1.22238
1.22238
2.24434
1.9483
2.26653
1.22238
1.22238
1.22238
1.22238
1.22238
1.22238
1.22238
1.22238
1.22238
1.22238
2.25685
1.22238
1.22238
1.22238
1.22238
1.22238
1.28533
2.22257
1.25957
2.26984
1.22238
1.22238
1.22238
2.26042
1.39778
1.24063
1.22238
1.22238
1.22238
1.47908
1.22238
1.6014
1.94401
2.26662
1.22238
1.22238
2.21402
2.12117
1.22238
1.22238
1.22238
1.70041
2.25261
1.2224
1.22238
1.22248
1.22238
1.22238
1.22238
1.22285
1.22238
1.22238
1.22238
2.24233
1.22238
1.22238
1.22592
1.23468
1.261
1.22331
1.24062
1.33139
1.22238
1.22238
1.22238
1.22549
1.22238
1.22238
1.22238
1.22238
1.22238
1.22238
1.22238
2.26504
1.22238
1.22238
1.22238
1.26335
1.22238
1.22238
2.25637
1.22238
1.22238
1.22238
1.22238
1.22238
1.22238
1.22238
1.22238
2.08737
1.22238
1.22238
1.22238
1.22238
1.22238
1.22238
1.22238
1.22238
1.22238
1.22238
1.22238
1.22238
1.22238
2.26329
1.22238
1.22238
1.22238
1.22238
1.22238
1.22238
2.21964
1.22238
2.33186
2.26864
2.3039
1.22238
1.22238
2.28252
1.22238
2.26207
2.24896
1.22238
2.24365
2.24019
1.22238
1.22238
1.95755
2.23977
1.22238
1.22238
1.22238
1.22238
1.22238
1.22238
1.22238
2.24069
1.22675
2.24132
1.22238
1.22238
2.24198
1.22238
1.22238
1.22238
2.2641
1.22238
2.24225
1.22238
1.22238
1.26273
1.22238
2.24236
1.22238
1.22238
1.22238
1.22238
1.22238
1.22255
2.24294
1.22238
2.25209
1.22238
1.22238
2.27638
2.24442
1.22238
2.25794
2.2604
2.24465
1.23007
2.29881
1.22238
1.22238
1.22238
1.22238
1.22238
2.26395
2.26637
1.22238
1.22238
2.24529
1.22238
1.22238
1.47076
1.22238
2.24531
2.24822
1.2226
2.24606
2.27554
1.26517
1.85249
2.21405
1.22238
2.26586
1.22238
1.22238
1.22238
1.22238
1.22238
1.22238
1.22238
1.22335
1.22938
1.22238
1.22249
1.22238
1.22238
1.22238
1.22681
2.25992
1.22238
1.22238
1.22238
2.26588
1.3714
1.22238
1.2224
1.22239
1.22994
1.22238
1.22238
1.22238
1.22238
1.22238
1.22238
1.22238
2.32411
2.14161
1.22238
1.22238
1.22238
1.2226
1.25546
1.22238
1.22275
1.22238
2.25312
1.22238
1.47432
2.25867
1.22238
1.22238
1.27678
1.22445
1.22238
2.28278
1.22238
2.2611
1.22415
2.27666
2.02921
2.27798
1.22238
2.26747
2.26773
1.22238
2.25682
1.2428
2.24911
1.22249
1.22238
1.22238
2.24463
1.38401
1.37541
1.22238
1.22255
2.24938
1.22238
1.22238
1.22238
2.24108
1.22238
1.22238
1.91272
2.24166
1.22238
1.22238
2.26649
2.24198
2.27524
1.22238
2.24219
1.22238
1.22238
1.22238
2.26641
2.26141
2.25476
1.22238
1.22238
2.1071
1.22238
1.22238
2.26666
2.26013
1.22371
1.22238
1.22238
1.22238
1.22238
1.22323
1.22243
1.22238
1.23141
1.22238
1.22238
1.22238
1.22238
2.24687
1.99822
1.22238
1.22238
2.27737
2.24524
1.22238
1.22284
2.24593
2.26336
1.22238
1.22238
2.24021
1.22238
2.22402
1.32421
1.22238
1.22238
1.22442
1.22866
1.22238
1.22238
1.22321
1.22238
1.22554
2.24026
1.22249
1.22249
1.2224
2.24053
1.22239
1.22238
1.28367
1.22238
1.23128
1.22243
1.22238
1.22238
1.22238
1.22276
2.21234
2.26618
2.26289
1.22238
1.22238
1.25501
1.22238
1.22283
1.32279
1.22238
1.22238
2.22166
2.1368
1.22559
1.27753
2.2612
1.22239
1.22238
1.22413
1.59212
1.22238
1.22858
1.22239
2.27416
1.36908
1.22238
1.22238
1.24256
1.22238
1.22238
2.26356
2.27884
1.28293
1.22238
1.22238
1.85923
2.27626
2.01728
2.29057
1.22238
1.22238
2.16416
2.26674
2.26881
1.22238
2.2575
1.22238
2.26975
1.22238
1.99578
1.22238
2.27944
1.22238
2.31546
2.27473
2.27142
1.22238
2.26321
2.25627
1.35214
1.22238
2.25813
1.22238
2.25544
1.22238
2.25324
1.22238
2.27187
1.22238
1.22238
2.06869
1.22238
1.22238
1.22238
2.49223
1.22239
1.22238
1.22238
2.27452
2.2655
1.22238
1.22238
3.30873
2.1557
1.22238
1.22238
2.27295
2.25062
1.22238
2.27466
1.22333
1.22238
1.22238
2.2387
2.16436
1.22338
2.23895
1.22238
2.26897
1.22238
2.30323
1.3733
2.24679
2.28325
1.22674
2.27001
2.27059
2.2753
2.26726
2.24494
2.24516
2.17718
3.32812
2.27411
1.22238
1.22238
1.80228
1.22238
1.22668
2.26627
2.10193
2.26374
2.27121
1.25099
2.26173
2.26711
1.22238
1.23912
2.25644
2.29046
2.02358
3.87221
2.26771
1.23889
2.23426
1.22238
2.95641
2.27145
2.2648
1.22238
1.22238
1.56174
2.03283
2.24506
2.25087
1.80883
1.22238
1.35037
1.22238
1.22238
2.23728
1.55718
1.9897
2.26786
2.2602
2.06648
2.27309
1.22238
1.97276
2.16984
2.2646
1.22238
2.14943
2.23593
1.22243
2.31785
1.22239
2.16644
2.24371
2.20842
2.29141
1.22238
2.26985
2.20573
1.22238
2.25952
1.74418
1.22238
1.22238
2.24283
2.24288
1.22243
3.89797
2.15316
1.22238
2.25262
1.2224
1.22238
1.22238
1.22238
1.22238
1.22445
1.23065
2.36213
1.22238
1.22238
2.36911
1.2224
2.5375
2.60955
1.22238
1.22238
1.22238
1.22238
3.0136
2.69632
2.24944
2.24442
2.24456
1.22238
2.50612
1.22238
1.96265
3.37501
2.06176
2.25244
2.2459
3.73485
1.22238
1.22238
2.02148
2.24299
2.25351
1.22238
2.5666
1.22238
1.22238
2.20528
1.50252
2.46911
1.22238
1.38143
2.24226
1.22238
1.22238
1.22238
2.1682
1.23053
1.68146
1.22238
2.32655
2.24182
2.24342
2.24272
1.22238
1.22238
1.22238
1.22238
1.22238
2.96214
1.22238
2.36635
2.71495
1.22238
3.72031
3.80124
3.68671
1.22238
1.22238
2.25165
1.22238
2.24448
1.22238
1.22238
2.24725
1.79399
1.99383
2.26433
2.25542
1.84251
2.26957
2.24792
1.22238
2.2469
2.07406
2.2468
2.22885
1.58285
2.33622
2.25137
2.25412
2.24298
2.24715
2.24592
2.24681
2.70709
1.22238
2.2549
1.80586
1.56205
2.29126
2.12221
2.11789
2.22719
2.24663
1.22238
1.22238
1.22238
1.22238
2.23862
1.22238
1.22238
2.1857
1.22238
2.25368
1.22238
1.22238
1.22238
1.22238
1.22238
1.22238
2.13029
3.04728
2.1126
2.24096
2.24017
1.22238
1.22238
1.22238
1.22239
1.91358
2.18862
1.22238
2.30187
1.24287
2.25331
3.9269
1.91157
2.15763
2.25311
1.22238
1.37862
1.22881
1.50935
3.90154
1.24269
1.22429
2.2505
2.3563
1.2229
1.22875
1.22428
1.22238
1.22238
1.22238
1.22251
1.22238
1.2229
1.22241
1.22238
1.22238
1.22251
2.61455
1.22239
1.81708
2.3559
2.25173
1.22238
2.26046
2.252
1.22241
1.22238
1.81407
2.2507
1.22238
1.22239
2.25219
1.79662
1.22238
1.22238
2.24592
2.24158
2.24542
2.24478
1.22238
2.25102
2.22195
1.65133
2.25188
2.43915
1.22238
1.22238
2.22381
1.22238
2.25255
1.22238
1.22238
1.22238
1.22238
1.4664
1.22238
1.28326
1.22238
2.25523
1.22238
2.25387
1.22238
2.24929
1.38197
1.22238
2.25478
2.25187
2.24923
1.22238
1.22238
1.22238
1.22238
1.22238
2.24935
1.22238
2.15068
1.22238
1.81983
2.25032
2.24489
2.26112
2.25388
1.25969
3.88114
1.2601
2.24699
1.22238
2.277
2.24595
2.27414
1.23431
2.26149
1.23445
2.27405
1.22596
1.98176
1.22601
1.22238
2.24939
2.24593
1.22338
1.22238
1.22339
1.22238
1.22264
1.22238
2.14069
2.24881
1.22264
1.22238
2.25298
2.25233
1.22238
1.68436
1.22244
3.8547
1.22244
1.22239
2.25458
1.22239
1.22238
1.22239
3.68123
2.25095
1.22238
1.22238
1.22238
2.2571
1.22238
2.24482
1.22238
1.22238
1.22238
1.22238
1.22238
1.22238
2.45098
2.25489
1.22238
2.33905
1.22238
2.25063
3.87366
1.22238
1.22238
1.22238
1.22238
1.22238
1.22238
1.22238
1.22238
1.22238
1.32824
2.2494
2.23879
1.22238
1.22238
1.22238
3.34423
1.22238
3.3139
1.22238
1.22238
1.32933
1.22238
1.22238
SCALARS pressure float
LOOKUP_TABLE default
101353
101353
101353
101353
101353
243466
101353
101353
101353
101353
101353
112815
101353
101353
101353
112965
241945
101353
250776
250071
250657
101353
249953
101353
250027
250129
101353
250066
101353
101353
101353
250161
101353
250160
101353
101353
249948
101353
101353
101353
101353
101353
101353
101353
250145
101353
250047
250049
101353
101353
101353
101353
101353
120014
177184
250165
250192
250142
101353
101353
252413
119696
250112
250328
101353
250370
250443
250091
250091
250065
101353
101353
101353
250104
250161
101353
101353
101353
421060
250070
101353
247199
250131
101353
101353
254840
234777
103044
101353
250146
101353
250166
101353
104671
250615
250069
101353
249992
250081
249937
101353
319582
222915
249982
239160
250130
101353
249549
250128
250162
247798
250012
241844
247077
194144
147342
198459
128445
223590
101353
158344
157665
249012
101353
101353
303094
101353
101353
101467
248932
101353
101353
249931
101353
250163
101353
195001
487950
111671
101353
434785
219468
128795
250124
101817
189524
101353
481400
101353
111809
249968
130827
250184
250133
148976
101353
101362
228827
211880
101353
249970
250398
101353
101353
101404
197268
132353
101597
210790
101353
101353
101353
242953
101353
101353
101353
101353
101353
103599
101353
249841
101405
249609
250132
101362
250237
101353
207230
101353
101353
101353
101354
101353
102406
279194
101353
101353
250106
101353
101353
250121
101353
101353
101353
101353
250164
101353
110842
101824
251206
101353
101353
101353
478781
101353
243245
101353
231109
101353
180168
250150
101353
237137
101353
220715
101354
101357
101353
101353
101353
229758
250142
101353
101353
247669
250551
158284
250203
250117
101353
250184
101353
101353
250187
101353
101353
101353
101353
110982
250602
101353
101353
101353
231716
101353
101353
264794
101353
250164
250135
101353
525644
101353
101353
250025
101364
101508
101353
236203
320443
101353
178920
250135
155230
180157
409404
101353
101353
251166
101353
245378
214587
250102
255943
101353
126620
252551
101353
254661
252538
250310
250138
250084
250119
124784
101353
101353
101353
250141
250180
235947
250238
250540
250267
249957
101353
101353
256344
101353
250263
101353
139067
101353
250146
250072
102390
120946
187300
101353
103657
241282
101353
250113
120948
250134
101353
412299
490942
101353
101510
250125
108683
101353
249201
250096
250079
250241
106051
101353
250097
249976
101353
101709
215501
250087
101353
249980
250533
103633
249788
250152
101353
101353
157498
101353
101353
101358
115735
250104
250141
105658
101353
249519
109952
249899
101353
250213
101353
302001
138359
101421
101353
165584
101353
250326
101353
143496
133817
249991
101580
101773
161433
101353
101385
250211
138107
101364
101355
101353
250191
101353
101353
103213
171959
110068
249976
101353
101353
106119
101353
101416
101825
101353
250094
101353
172272
101353
250069
102182
151484
111431
250066
245915
221547
172467
101380
250049
101353
250099
164690
249951
249478
250053
250157
154377
325831
201221
250029
117616
101353
101353
101353
250088
101353
236664
249874
101353
250114
186421
250350
101353
250051
106854
250141
249901
101420
101353
104184
249952
101353
249842
250092
250143
137828
250110
103624
250131
101358
250033
101353
110536
115531
240389
101353
124463
203628
101353
101377
250038
250044
250021
143803
101353
249052
110047
126994
188443
173168
102186
101353
106397
130381
109923
101353
101353
248350
152155
101353
101832
113810
105538
103022
250030
101353
250056
101353
101353
101357
250161
217788
252691
204731
101577
249835
101353
101353
104222
250155
101353
101353
101353
101353
101353
118645
101353
249060
101377
101353
101353
101353
101353
101353
101353
101353
102752
121279
101353
101353
134377
101353
250008
101476
250166
101353
250178
173328
101353
101353
101353
101353
101361
101353
101355
250012
101353
250135
139586
101353
101353
106927
250065
173245
101353
102197
120591
101353
101382
101353
101353
147229
250089
101353
101353
101353
101353
249313
250123
250001
101570
246237
103264
101353
250071
101353
249917
249821
101353
249250
247225
250197
101523
102449
265855
103460
101353
249236
165828
101353
117859
101353
101353
101364
101353
249339
101353
101353
101353
101353
101353
249895
108973
101353
101353
101353
123435
248928
250120
101353
151370
246755
101353
240954
101353
227124
200850
101353
101353
101353
101353
101353
101353
101353
101353
101353
101353
101353
101353
101353
101353
244514
249665
162286
249306
250116
101353
134247
101353
103243
194592
101353
101353
101353
101353
101353
101353
110693
114742
101353
101353
107246
249492
105971
250203
101353
101353
102807
250070
101353
101364
101770
101355
101407
101353
101932
137456
103520
101379
101398
101353
101355
250081
101353
165389
101353
101353
101353
250176
101353
101353
101353
105684
101505
101353
101353
101353
250107
101353
101353
101353
101353
101353
101353
101353
101353
111273
101353
235351
101353
165099
101353
101353
101417
101353
101353
105606
101463
101353
101353
101353
101353
101353
101353
101353
101353
101353
101353
101353
101353
101353
181148
101353
101355
101353
133849
239888
250058
143180
101353
101353
101382
101353
101353
101353
101353
172210
101353
250091
101353
101353
249787
101353
101353
236041
101353
101567
101353
101353
101353
101353
101353
249698
102433
250043
101353
101353
250139
101353
101353
247005
200357
248865
101353
101353
101353
101353
101353
101353
101353
101353
101353
101353
249236
101353
101353
101353
101353
101353
108867
244527
105745
249241
101353
101353
101353
249410
123122
103490
101353
101353
101353
133804
101353
150684
199917
250171
101353
101353
240613
226433
101353
101353
101353
164568
246617
101355
101353
101364
101353
101353
101353
101407
101353
101353
101353
245159
101353
101353
101764
102788
105911
101461
103496
114564
101353
101353
101353
101714
101353
101353
101353
101353
101353
101353
101353
250108
101353
101353
101353
106213
101353
101353
250155
101353
101353
101353
101353
101353
101353
101353
101353
222454
101353
101353
101353
101353
101353
101353
101353
101353
101353
101353
101353
101353
101353
250005
101353
101353
101353
101353
101353
101353
244077
101353
264097
249828
259814
101353
101353
256458
101353
253253
251201
101353
250382
249842
101353
101353
202597
249702
101353
101353
101353
101353
101353
101353
101353
249846
101861
249912
101353
101353
249991
101353
101353
101353
249888
101353
250032
101353
101353
106139
101353
250050
101353
101353
101353
101353
101353
101372
250051
101353
247845
101353
101353
250048
250060
101353
248455
247687
250096
102250
253222
101353
101353
101353
101353
101353
250154
250093
101353
101353
250126
101353
101353
132763
101353
250129
246527
101378
250123
249636
106485
186562
240197
101353
250131
101353
101353
101353
101353
101353
101353
101353
101465
102169
101353
101366
101353
101353
101353
101868
250158
101353
101353
101353
248152
119798
101353
101356
101354
102235
101353
101353
101353
101353
101353
101353
101353
262687
230440
101353
101353
101353
101379
105251
101353
101396
101353
248004
101353
133212
248568
101353
101353
107819
101594
101353
251034
101353
247796
101558
255518
212446