# vtk DataFile Version 1.0
Supersonic flow over a wedge
ASCII

DATASET UNSTRUCTURED_GRID
POINTS 864 float
0 0 1
0.4 0 1
2 0.4287 1
2 1 1
0 1 1
0.05 0 1
0.1 0 1
0.15 0 1
0.2 0 1
0.25 0 1
0.3 0 1
0.35 0 1
0.447059 0.0126088 1
0.494118 0.0252176 1
0.541176 0.0378265 1
0.588235 0.0504353 1
0.635294 0.0630441 1
0.682353 0.0756529 1
0.729412 0.0882618 1
0.776471 0.100871 1
0.823529 0.113479 1
0.870588 0.126088 1
0.917647 0.138697 1
0.964706 0.151306 1
1.01176 0.163915 1
1.05882 0.176524 1
1.10588 0.189132 1
1.15294 0.201741 1
1.2 0.21435 1
1.24706 0.226959 1
1.29412 0.239568 1
1.34118 0.252176 1
1.38824 0.264785 1
1.43529 0.277394 1
1.48235 0.290003 1
1.52941 0.302612 1
1.57647 0.315221 1
1.62353 0.327829 1
1.67059 0.340438 1
1.71765 0.353047 1
1.76471 0.365656 1
1.81176 0.378265 1
1.85882 0.390874 1
1.90588 0.403482 1
1.95294 0.416091 1
2 0.476308 1
2 0.523917 1
2 0.571525 1
2 0.619133 1
2 0.666742 1
2 0.71435 1
2 0.761958 1
2 0.809567 1
2 0.857175 1
2 0.904783 1
2 0.952392 1
1.95 1 1
1.9 1 1
1.85 1 1
1.8 1 1
1.75 1 1
1.7 1 1
1.65 1 1
1.6 1 1
1.55 1 1
1.5 1 1
1.45 1 1
1.4 1 1
1.35 1 1
1.3 1 1
1.25 1 1
1.2 1 1
1.15 1 1
1.1 1 1
1.05 1 1
1 1 1
0.95 1 1
0.9 1 1
0.85 1 1
0.8 1 1
0.75 1 1
0.7 1 1
0.65 1 1
0.6 1 1
0.55 1 1
0.5 1 1
0.45 1 1
0.4 1 1
0.35 1 1
0.3 1 1
0.25 1 1
0.2 1 1
0.15 1 1
0.1 1 1
0.05 1 1
0 0.95 1
0 0.9 1
0 0.85 1
0 0.8 1
0 0.75 1
0 0.7 1
0 0.65 1
0 0.6 1
0 0.55 1
0 0.5 1
0 0.45 1
0 0.4 1
0 0.35 1
0 0.3 1
0 0.25 1
0 0.2 1
0 0.15 1
0 0.1 1
0 0.05 1
0.601614 0.0959908 1
0.48154 0.958438 1
0.787109 0.145026 1
0.675077 0.956677 1
0.971714 0.199653 1
0.0432965 0.524987 1
0.875098 0.956635 1
1.16267 0.249363 1
1.075 0.956699 1
1.35491 0.294755 1
1.54274 0.346236 1
1.2774 0.958864 1
1.625 0.956699 1
0.325272 0.0432439 1
1.72965 0.406301 1
1.95825 0.696401 1
0.0426558 0.325065 1
0.0426504 0.723875 1
1.47603 0.957621 1
0.325 0.956699 1
1.77445 0.957205 1
0.46349 0.0507648 1
0.175613 0.044096 1
0.172916 0.955081 1
1.87344 0.436405 1
1.96048 0.837396 1
0.0442959 0.175208 1
1.37721 0.958656 1
1.17758 0.959073 1
0.975026 0.956712 1
0.775119 0.956575 1
0.578675 0.960273 1
0.0428762 0.425005 1
0.0418258 0.828612 1
0.0433013 0.625 1
0.694963 0.122711 1
0.892802 0.168702 1
1.07203 0.221343 1
1.2574 0.270161 1
1.4484 0.326139 1
1.6323 0.374178 1
1.95911 0.59523 1
1.87265 0.956706 1
1.96843 0.501072 1
0.075 0.956699 1
0.0776017 0.0433559 1
1.96287 0.927954 1
0.37404 0.0433733 1
0.350355 0.0861124 1
0.300827 0.0866745 1
0.326217 0.129277 1
0.276684 0.129948 1
0.302081 0.172497 1
0.351592 0.171801 1
0.327476 0.215011 1
0.376967 0.214283 1
0.352908 0.257448 1
0.402309 0.256776 1
0.378268 0.299906 1
0.427654 0.299222 1
0.403608 0.342361 1
0.453002 0.341673 1
0.428924 0.384836 1
0.478342 0.384122 1
0.454267 0.427309 1
0.503712 0.426596 1
0.479606 0.469808 1
0.5291 0.469087 1
0.504984 0.512345 1
0.554502 0.5116 1
0.455442 0.513063 1
0.578615 0.468359 1
0.60401 0.510838 1
0.628099 0.467626 1
0.653478 0.510097 1
0.629452 0.553283 1
0.678888 0.552547 1
0.702946 0.509345 1
0.728344 0.55177 1
0.752401 0.508581 1
0.777785 0.550997 1
0.480846 0.555637 1
0.431252 0.556353 1
0.801809 0.507829 1
0.827181 0.550218 1
0.851196 0.507073 1
0.876556 0.549439 1
0.900567 0.506311 1
0.925923 0.54867 1
0.901909 0.591826 1
0.951303 0.591034 1
0.975311 0.547858 1
1.00069 0.59023 1
1.02468 0.547078 1
1.05005 0.589426 1
0.704454 0.595086 1
0.379339 0.385289 1
1.07403 0.546293 1
1.0994 0.588621 1
0.456679 0.598964 1
0.407037 0.599687 1
1.1232 0.545382 1
1.1487 0.587816 1
1.12477 0.630962 1
1.17414 0.630096 1
1.19801 0.587009 1
1.22352 0.62929 1
1.24739 0.586171 1
1.27286 0.628423 1
1.29685 0.585352 1
1.32222 0.627563 1
0.927287 0.634241 1
1.34621 0.584528 1
1.37156 0.626766 1
0.776421 0.465409 1
0.43249 0.642342 1
0.382803 0.643063 1
0.357341 0.600368 1
0.333076 0.643769 1
0.502708 0.341072 1
1.3955 0.583684 1
1.42087 0.625886 1
1.4448 0.582862 1
1.47017 0.625141 1
1.44624 0.668274 1
1.49603 0.667171 1
1.51957 0.62426 1
1.54494 0.666539 1
1.56882 0.623436 1
1.59426 0.665565 1
1.29828 0.670829 1
1.04863 0.503997 1
1.1508 0.67344 1
0.408278 0.685758 1
0.457994 0.685022 1
1.61809 0.622592 1
1.6435 0.664714 1
1.6673 0.621908 1
1.69259 0.663865 1
0.307588 0.601025 1
0.303326 0.257921 1
1.27121 0.542995 1
1.66883 0.706778 1
1.71787 0.705882 1
0.283312 0.644487 1
1.52138 0.709473 1
1.7165 0.621428 1
0.433778 0.728468 1
0.483525 0.727726 1
1.69416 0.748799 1
1.74315 0.747816 1
0.25857 0.601285 1
1.41944 0.540639 1
0.875226 0.463987 1
1.54343 0.581179 1
0.451956 0.256197 1
0.2525 0.173245 1
0.384018 0.729206 1
1.02607 0.632534 1
0.282224 0.558185 1
0.803237 0.593413 1
1.76677 0.705046 1
1.64154 0.57971 1
0.23352 0.645218 1
0.259016 0.687979 1
0.409529 0.771952 1
0.359749 0.772688 1
0.233223 0.558431 1
0.256785 0.515415 1
1.79197 0.746812 1
0.507753 0.684271 1
0.533277 0.726974 1
0.50905 0.770445 1
0.558814 0.769679 1
0.583029 0.726212 1
0.608566 0.768908 1
1.7195 0.790778 1
1.67035 0.791768 1
0.208705 0.51509 1
0.231466 0.472552 1
0.209206 0.689619 1
0.234727 0.731683 1
0.602732 0.425193 1
0.65213 0.424471 1
0.626835 0.382099 1
0.676114 0.38136 1
0.650881 0.339076 1
0.700068 0.338339 1
0.674875 0.296103 1
0.723988 0.295392 1
0.625714 0.29682 1
0.749203 0.33757 1
0.773423 0.294485 1
0.798353 0.336758 1
0.924517 0.463236 1
0.899235 0.420959 1
0.948428 0.420195 1
0.923201 0.37802 1
0.972307 0.377243 1
0.632766 0.725454 1
0.6583 0.768135 1
0.682479 0.724689 1
0.708017 0.767362 1
0.732195 0.723932 1
0.75772 0.766591 1
0.781897 0.72318 1
0.80741 0.765822 1
0.385268 0.815479 1
0.335486 0.816235 1
0.405846 0.513737 1
1.81555 0.704227 1
0.184872 0.732442 1
0.210441 0.775129 1
0.733544 0.810038 1
1.69578 0.83392 1
1.74493 0.832721 1
0.178501 0.556107 1
0.631891 0.810371 1
1.8406 0.745815 1
0.534592 0.813177 1
1.64646 0.834912 1
0.82319 0.293906 1
0.183121 0.472367 1
0.206 0.429782 1
0.64966 0.253917 1
0.600581 0.254618 1
0.94713 0.335134 1
0.996174 0.334364 1
1.02136 0.37644 1
0.401319 0.171342 1
1.04521 0.333605 1
1.07038 0.375645 1
0.255433 0.429282 1
0.229996 0.386532 1
0.18025 0.387202 1
0.204501 0.343806 1
0.607243 0.682788 1
0.167479 0.694454 1
0.831359 0.722219 1
0.857036 0.765038 1
0.832919 0.808473 1
0.882583 0.805316 1
0.906681 0.763894 1
0.932313 0.806453 1
0.956407 0.763348 1
0.982018 0.80602 1
1.00617 0.762657 1
1.03172 0.805301 1
1.62099 0.79265 1
1.59754 0.835564 1
1.05556 0.761562 1
1.08135 0.804469 1
0.160535 0.775871 1
0.186115 0.818719 1
0.624537 0.211787 1
0.57547 0.212457 1
0.748288 0.252222 1
0.157201 0.343 1
0.179445 0.300966 1
1.00757 0.848772 1
1.0942 0.332823 1
1.11941 0.37485 1
0.904911 0.851948 1
0.227047 0.130619 1
0.202848 0.17384 1
0.177321 0.131251 1
0.153072 0.174279 1
0.127502 0.131876 1
0.362299 0.861374 1
0.314921 0.864922 1
0.411044 0.858657 1
0.279656 0.385892 1
1.79043 0.662499 1
1.839 0.661672 1
1.81403 0.620126 1
0.849749 0.421576 1
1.46865 0.539819 1
1.44335 0.497622 1
1.49246 0.496808 1
1.39419 0.498448 1
1.41804 0.455515 1
1.36898 0.456311 1
1.39283 0.413463 1
1.34382 0.41425 1
1.44185 0.412644 1
1.31997 0.457099 1
1.29445 0.414934 1
0.306399 0.514806 1
0.551496 0.255295 1
0.526368 0.213113 1
1.10487 0.760662 1
1.13098 0.803645 1
1.1069 0.847158 1
1.15662 0.846358 1
1.1808 0.802904 1
1.20636 0.845554 1
1.2305 0.8021 1
1.25607 0.844736 1
1.28019 0.80128 1
1.30577 0.843913 1
1.32989 0.800466 1
1.35547 0.843091 1
1.37959 0.799658 1
1.40515 0.842269 1
1.42927 0.798848 1
1.45364 0.84079 1
1.35404 0.757072 1
1.20496 0.759497 1
0.506423 0.598227 1
1.81719 0.788402 1
1.86571 0.787418 1
1.84232 0.829747 1
1.47765 0.796615 1
1.0957 0.417729 1
1.14469 0.416873 1
1.16843 0.37403 1
1.19384 0.416077 1
1.21817 0.373316 1
1.26996 0.457683 1
0.877935 0.634954 1
1.10113 0.673958 1
1.16991 0.458945 1
1.86247 0.619345 1
1.83755 0.577772 1
0.756338 0.680556 1
0.305136 0.428719 1
1.78905 0.578548 1
1.81266 0.536084 1
1.76402 0.536846 1
1.78767 0.494321 1
1.73888 0.495123 1
1.86124 0.535477 1
0.673633 0.211392 1
0.980676 0.720071 1
1.72128 0.875832 1
0.228243 0.216045 1
0.132747 0.299638 1
1.57198 0.793248 1
1.50169 0.836767 1
1.77094 0.87338 1
0.136726 0.819117 1
0.971009 0.292324 1
0.922023 0.293067 1
0.549635 0.170706 1
0.501133 0.171005 1
0.163977 0.863639 1
0.212912 0.862569 1
0.128669 0.381733 1
0.52624 0.12627 1
0.388008 0.904503 1
1.88903 0.744915 1
0.114989 0.861179 1
1.19239 0.333982 1
1.45213 0.754305 1
0.84837 0.336311 1
1.43033 0.883916 1
0.903805 0.677644 1
0.77464 0.379818 1
0.577451 0.382798 1
0.70146 0.423702 1
0.973838 0.462461 1
0.484814 0.813932 1
0.510349 0.8567 1
0.560181 0.855938 1
1.33134 0.886562 1
0.334279 0.729939 1
0.228896 0.300658 1
0.260244 0.774324 1
1.71484 0.537249 1
1.68926 0.494823 1
1.59563 0.750315 1
1.31863 0.373768 1
0.107961 0.777403 1
1.23194 0.888222 1
0.153565 0.258237 1
0.103741 0.258897 1
1.13247 0.889864 1
1.88585 0.661873 1
1.6226 0.877859 1
1.57383 0.877058 1
0.477061 0.127899 1
1.08048 0.88349 1
1.88855 0.827673 1
1.86745 0.870721 1
0.535926 0.899491 1
0.650639 0.161382 1
0.399128 0.0883082 1
0.434092 0.900128 1
1.06724 0.292992 1
0.583284 0.891492 1
0.144063 0.90907 1
1.12007 0.285 1
1.76056 0.451755 1
1.81126 0.451723 1
1.91735 0.86662 1
0.947034 0.248036 1
0.897972 0.250744 1
1.24285 0.33642 1
0.103195 0.175492 1
0.995266 0.24923 1
0.0776226 0.132653 1
1.41902 0.36962 1
0.41474 0.949937 1
0.91937 0.208569 1
1.91501 0.619141 1
0.0759719 0.221041 1
0.101933 0.0884725 1
0.0470991 0.0827906 1
1.21892 0.458147 1
1.19548 0.50122 1
1.26965 0.372966 1
1.29292 0.331653 1
0.953025 0.676802 1
0.201546 0.0877386 1
0.45138 0.170951 1
0.0884413 0.90463 1
1.24491 0.500464 1
0.502358 0.255992 1
1.24417 0.415521 1
0.275432 0.0434815 1
0.329552 0.385638 1
0.304026 0.342771 1
1.82489 0.956762 1
0.225647 0.0437875 1
1.91108 0.784992 1
1.93397 0.742155 1
0.873084 0.293751 1
0.848243 0.252201 1
0.798425 0.251493 1
0.823414 0.209667 1
0.772906 0.213951 1
0.722954 0.212885 1
1.29537 0.499957 1
1.88536 0.576358 1
1.90638 0.537351 1
1.88045 0.488325 1
1.83302 0.49433 1
1.91601 0.450286 1
1.8637 0.703535 1
[...]
POINT_DATA 864
SCALARS density float
LOOKUP_TABLE default
1.22238
1.55093
2.25257
3.78348
1.22238
1.22238
1.22238
1.22238
1.22238
1.22238
1.22238
1.22238
2.17727
2.25078
2.30128
2.30746
2.27584
2.25253
2.24603
2.24265
2.24008
2.23888
2.23892
2.23977
2.24155
2.24297
2.24395
2.24472
2.24556
2.24617
2.24664
2.24717
2.24753
2.24816
2.24864
2.24902
2.24935
2.24968
2.25005
2.25038
2.25074
2.25101
2.25131
2.25166
2.25208
2.25351
2.25618
2.26206
2.27622
2.31231
2.42424
2.65408
3.0042
3.37779
3.618
3.73581
3.74638
3.65199
3.50159
3.28445
2.97543
2.57013
2.11136
1.71794
1.44114
1.30696
1.25096
1.23161
1.22526
1.22322
1.22261
1.22243
1.22239
1.22238
1.22238
1.22238
1.22238
1.22238
1.22238
1.22238
1.22238
1.22238
1.22238
1.22238
1.22238
1.22238
1.22238
1.22238
1.22238
1.22238
1.22238
1.22238
1.22238
1.22238
1.22238
1.22238
1.22238
1.22238
1.22238
1.22238
1.22238
1.22238
1.22238
1.22238
1.22238
1.22238
1.22238
1.22238
1.22238
1.22238
1.22238
1.22238
1.22238
1.22238
2.1161
1.22238
2.23211
1.22238
2.23951
1.22238
1.22238
2.24543
1.22238
2.24762
2.24954
1.22309
1.81728
1.22238
2.25111
2.32474
1.22238
1.22238
1.29102
1.22238
2.88221
1.63285
1.22238
1.22238
2.2519
3.09241
1.22238
1.23007
1.22243
1.22238
1.22238
1.22238
1.22238
1.22238
1.22238
2.20008
2.23738
2.24327
2.24671
2.2489
2.25036
2.2646
3.44607
2.2543
1.22238
1.22238
3.63883
1.22238
1.22238
1.22238
1.22238
1.22238
1.22238
1.22238
1.22238
1.22238
1.22238
1.22238
1.22238
1.22238
1.22238
1.22238
1.22238
1.22238
1.22238
1.22238
1.22238
1.22238
1.22238
1.22238
1.22238
1.22238
1.22238
1.22238
1.22238
1.22238
1.22238
1.22245
1.22241
1.22301
1.22268
1.22238
1.22238
1.22608
1.2242
1.23887
1.2308
1.28097
1.25377
1.22663
1.23892
1.3203
1.27665
1.46571
1.37503
1.22238
1.22238
1.65938
1.54606
1.22238
1.22238
1.84616
1.73869
1.4411
1.62613
1.91122
1.81335
2.04327
1.96925
2.13309
2.08213
1.22451
2.18946
2.15745
1.22988
1.22238
1.22238
1.22238
1.22238
1.22238
2.22302
2.20439
2.24225
2.23208
2.17966
2.21798
2.24796
2.2402
2.25649
2.25285
1.88241
1.77355
1.3581
1.22238
1.22238
2.26081
2.25972
2.26274
2.26326
1.22238
1.22238
2.17195
2.25711
2.26323
1.22238
2.1974
2.26338
1.22238
1.22238
2.25347
2.26486
1.22238
2.24868
1.32955
2.25812
1.22238
1.22238
1.22238
1.25192
1.22238
1.22252
2.26741
2.26144
1.22238
1.22238
1.22238
1.22238
1.22238
1.22238
2.27616
1.22238
1.22238
1.22238
1.22238
1.22238
1.22238
2.25326
2.22591
1.22238
1.22238
1.22238
1.22238
1.22239
1.22271
1.22312
1.22813
1.23425
1.28038
1.33345
1.52554
1.24659
1.41725
1.75395
1.62992
1.48923
1.60447
1.80731
1.9132
2.05287
1.22238
1.22238
1.22238
1.22238
1.22238
1.22238
1.22238
1.22238
1.22238
1.22238
1.22238
2.27192
1.22238
1.22238
1.22238
2.22159
2.27779
1.22238
1.22238
2.29325
1.22238
2.16111
1.94658
1.22238
1.22238
1.4176
1.27094
2.11604
2.18069
2.14268
1.22238
2.21637
2.19571
1.22238
1.22238
1.22238
1.22238
1.22238
1.22238
1.22238
1.22238
1.22238
1.22238
1.22239
1.22239
1.22243
1.22241
1.22265
1.22251
2.18785
2.08076
1.22354
1.22297
1.22238
1.22238
1.53375
1.31807
1.87312
1.22238
1.22238
1.2224
2.23522
2.22495
1.22238
1.22238
1.22238
1.22238
1.22238
1.22238
1.22238
1.22238
1.22238
1.22238
2.26608
2.26752
2.26318
1.40751
2.25524
2.25589
2.25732
2.2521
2.25516
2.25325
2.25349
2.25282
2.25329
2.24848
2.25022
1.22238
1.23029
1.23964
1.22674
1.22464
1.22269
1.22356
1.23008
1.22647
1.24635
1.23541
1.29029
1.26059
1.39646
1.32551
1.56591
1.46084
1.75136
1.64393
1.67692
1.26596
1.22238
2.31471
2.37421
2.45909
1.91452
2.16529
2.20852
2.23953
2.23213
2.24694
2.23864
1.22281
1.27129
2.18389
2.26331
2.25982
1.22238
1.22238
2.26042
2.25723
2.25793
2.2549
2.25554
2.2566
1.76956
1.22291
2.26575
1.22238
1.22238
2.12925
1.82396
2.40101
1.22238
2.2073
2.16439
1.39017
1.25995
1.22238
1.22238
1.22238
1.51214
1.22238
2.32377
1.22238
2.24714
1.99763
1.84023
1.39143
1.22259
1.33568
1.22239
1.22514
1.69226
1.22238
1.22238
1.22238
1.24562
1.22238
1.22238
1.22238
2.25862
2.25618
2.2111
2.25138
1.22238
1.22477
1.22238
1.22238
1.22254
2.27088
2.03175
1.88867
1.30477
1.22242
2.61395
2.8169
1.22238
1.9383
1.22238
1.22238
2.23958
1.22238
1.22238
2.24432
2.25287
2.25265
3.08058
2.226
2.19959
2.24892
1.22238
2.23652
1.22238
2.25084
1.22238
2.23374
2.26527
1.22238
1.22238
1.22238
2.21942
2.14934
2.2502
2.24927
1.22345
1.22238
1.22293
1.22238
2.20006
1.22249
2.24438
1.22238
1.22238
1.22238
3.206
1.22238
2.46268
2.37465
2.08191
2.14038
2.04049
2.18226
2.10412
1.97507
2.22856
2.25949
2.25616
2.25377
2.25452
2.2524
2.27977
2.25827
2.25758
2.2554
2.25495
2.25731
2.25435
2.25189
2.25679
2.25393
2.25332
2.25954
1.64573
2.26501
1.22243
2.49344
2.12377
2.2288
1.85408
1.9469
1.78751
1.6383
2.25131
1.22238
1.94274
2.24303
1.22238
1.5763
1.88015
1.34083
1.41896
1.30004
1.49078
1.2237
2.25558
2.25301
2.25274
1.72405
1.22466
1.22238
1.22238
1.22238
1.22238
1.22239
2.23596
1.24596
1.25428
1.2831
1.22479
1.22238
1.22238
1.22238
1.22238
1.22238
1.22257
1.22239
1.22238
1.22238
1.22238
1.22238
1.22238
1.22238
1.22238
1.22238
1.22238
1.22238
1.22238
1.22238
1.22238
1.22238
1.22238
1.22238
1.2368
1.22238
1.22238
1.22238
1.22238
1.22238
1.22238
1.22238
1.22238
1.22238
1.22238
1.57036
1.39108
1.4655
1.22401
1.22253
1.23741
1.22238
1.22238
2.26058
1.22238
1.22238
1.22238
1.22238
1.22238
1.22238
1.22238
1.22238
1.22238
1.22238
2.29526
2.25275
1.22238
2.25072
2.24857
1.39215
1.22238
1.22238
1.22238
1.22238
1.22238
1.22238
1.22238
1.22238
1.22238
1.97402
1.22238
1.22238
1.22238
1.96124
2.16681
2.22117
2.23296
2.24424
2.2462
1.22238
2.00535
2.25061
1.22238
1.22238
1.22238
2.25939
2.27912
1.22238
1.22238
1.22238
1.22238
1.22238
1.22238
1.22238
1.22372
1.22238
1.22327
1.22238
1.22238
1.25215
1.23099
1.22245
1.22598
2.09128
1.30993
1.22306
1.22238
1.23013
1.28699
2.24404
1.22238
1.22238
1.22238
1.22238
2.02485
1.22238
2.24185
2.2803
1.22262
2.21271
1.22238
2.25722
1.99643
1.51151
1.22238
1.22239
1.2224
1.22238
1.22238
2.15148
1.2224
1.22238
2.10314
1.22238
2.23726
1.70089
1.22248
1.2224
1.22238
1.22683
1.22238
1.22238
1.23819
2.26337
1.24915
2.24661
1.22238
1.22238
2.349
1.51779
2.123
1.7068
2.24991
1.22238
1.5983
2.75501
2.26104
2.22842
2.02079
2.1172
1.22238
2.06572
2.16836
2.06698
2.26145
2.25919
1.22238
1.22245
1.22238
1.22241
1.22238
3.31398
1.22238
2.08226
2.24743
1.23072
2.67721
2.58745
1.22238
3.61156
3.42134
2.24925
1.22238
2.1465
2.46496
2.09886
3.05384
2.25125
2.03895
1.96714
2.22712
1.22238
1.22238
2.02359
1.22238
1.8242
2.24637
1.22238
1.63729
1.7506
1.22238
1.22239
1.22238
1.22238
1.22238
1.22238
2.2199
2.24144
1.31956
2.25275
1.72868
1.22238
2.25184
1.55438
2.25078
1.33611
2.16305
1.26286
2.2493
1.22238
2.25965
1.22238
1.23574
1.22666
2.27903
1.22238
2.25151
1.22368
1.9493
1.22274
1.30984
1.22238
1.22247
2.24738
1.2224
1.22238
1.22239
1.22238
1.22238
1.22238
2.24359
2.25393
3.71966
3.46745
1.22238
1.22238
1.22238
2.2518
2.47036
2.20216
1.22238
1.22238
2.77979
1.22238
1.22238
1.22238
2.25072
1.22238
2.23906
1.22238
1.22238
2.25268
1.22238
2.24778
SCALARS pressure float
LOOKUP_TABLE default
101353
143239
250124
515329
101353
101353
101353
101353
101353
101353
101353
101353
238212
251397
259827
260948
255919
252206
251038
250377
249866
249570
249500
249567
249717
249835
249904
249946
249988
250007
250017
250029
250033
250047
250056
250060
250063
250067
250069
250069
250072
250074
250076
250083
250097
250172
250352
250870
252603
257780
275403
313567
374638
441947
485802
506777
508048
489868
461315
421045
365618
296492
223498
165785
128392
111477
104711
102429
101688
101451
101379
101359
101354
101353
101353
101353
101353
101353
101353
101353
101353
101353
101353
101353
101353
101353
101353
101353
101353
101353
101353
101353
101353
101353
101353
101353
101353
101353
101353
101353
101353
101353
101353
101353
101353
101353
101353
101353
101353
101353
101353
101353
101353
101353
231042
101353
248526
101353
249261
101353
101353
249873
101353
250008
250049
101436
180831
101353
250063
259380
101353
101353
109651
101353
350893
158416
101353
101353
250077
389842
101353
102252
101358
101353
101353
101353
101353
101353
101353
243729
249163
249719
249971
250026
250060
250960
451979
250185
101353
101353
488892
101353
101353
101353
101353
101353
101353
101353
101353
101353
101353
101353
101353
101353
101353
101353
101353
101353
101353
101353
101353
101353
101353
101353
101353
101353
101353
101353
101353
101353
101353
101361
101356
101426
101387
101353
101353
101786
101565
103310
102344
108497
105116
101851
103312
113470
107936
132619
120537
101353
101353
159332
143471
101353
101353
186169
170501
129232
154499
195592
181153
215305
204054
228974
221019
101602
237694
232531
102236
101353
101353
101353
101353
101353
242984
239816
246099
244200
235768
241750
246791
245291
248260
247378
191071
175744
118280
101353
101353
249087
248582
249545
249275
101353
101353
235184
247890
248966
101353
238371
249801
101353
101353
247097
248964
101353
247467
114707
248881
101353
101353
101353
104882
101353
101369
249748
249728
101353
101353
101353
101353
101353
101353
250829
101353
101353
101353
101353
101353
101353
246884
242607
101353
101353
101353
101353
101353
101391
101439
102030
102764
108492
115384
141385
104275
126453
173981
155862
135922
151924
180976
196854
217951
101353
101353
101353
101353
101353
101353
101353
101353
101353
101353
101353
250585
101353
101353
101353
241822
250553
101353
101353
253611
101353
232556
202571
101353
101353
126724
107340
228072
238212
231818
101353
243931
240175
101353
101353
101353
101353
101353
101353
101353
101353
101353
101353
101354
101353
101359
101356
101384
101368
236726
220392
101488
101421
101353
101353
142954
113489
191967
101353
101353
101354
247074
244911
101353
101353
101353
101353
101353
101353
101353
101353
101353
101353
250011
250384
250080
124991
248659
249193
249600
248419
249544
249057
249763
249469
249900
248130
248888
101353
102297
103448
101862
101616
101389
101490
102255
101830
104197
102887
109604
105926
123246
114054
145990
131754
171990
156867
161462
106588
101353
256630
266218
279780
195688
234992
241844
247378
245698
248704
246414
101403
107255
237590
250248
250088
101353
101353
250037
250059
250037
250055
250040
250080
177181
101415
248583
101353
101353
227777
182531
270137
101353
242948
236095
123340
106030
101353
101353
101353
140828
101353
258541
101353
249258
207979
186327
122528
101377
115573
101354
101676
164218
101353
101353
101353
104105
101353
101353
101353
250004
250019
240398
249711
101353
101631
101353
101353
101372
251053
212918
191789
111930
101357
305785
340506
101353
203099
101353
101353
248280
101353
101353
249289
250058
250061
387461
246483
242169
249639
101353
248247
101353
249968
101353
248233
250704
101353
101353
101353
243248
231914
249382
249853
101477
101353
101418
101353
239844
101366
247796
101353
101353
101353
408084
101353
280780
266811
223219
232799
217324
239979
227731
207950
244411
250166
250119
250077
250060
250088
251941
249309
249812
249910
249977
249924
250012
250033
249985
250029
250046
249846
158614
249695
101359
285359
226517
246460
186829
200481
177218
158105
249893
101353
200575
248491
101353
147786
191482
116023
126218
110838
135795
101506
249787
249968
250004
169101
101619
101353
101353
101353
101353
101353
245330
104139
105190
108794
101634
101353
101353
101353
101353
101353
101375
101354
101353
101353
101353
101353
101353
101353
101353
101353
101353
101353
101353
101353
101353
101353
101353
101353
103053
101353
101353
101353
101353
101353
101353
101353
101353
101353
101353
146192
122365
132286
101543
101370
103140
101353
101353
249429
101353
101353
101353
101353
101353
101353
101353
101353
101353
101353
254491
247882
101353
250003
250009
122853
101353
101353
101353
101353
101353
101353
101353
101353
101353
205692
101353
101353
101353
207640
238813
246891
248507
249795
249934
101353
211068
250063
101353
101353
101353
249658
250969
101353
101353
101353
101353
101353
101353
101353
101513
101353
101456
101353
101353
104944
102365
101361
101777
223514
112114
101431
101353
102260
109167
246985
101353
101353
101353
101353
213110
101353
249550
252927
101381
241586
101353
250320
208421
139150
101353
101354
101355
101353
101353
230966
101355
101353
224578
101353
244501
169018
101365
101355
101353
101873
101353
101353
103221
249955
104539
246147
101353
101353
261840
139481
228108
165738
250056
101353
150482
329456
249981
243232
211593
226170
101353
218238
233794
219274
249890
249948
101353
101361
101353
101357
101353
428634
101353
224934
249987
102332
317255
301063
101353
483029
449632
250039
101353
230523
280639
223199
381752
250065
214169
203461
242522
101353
101353
211432
101353
182156
249623
101353
155677
175290
101353
101353
101353
101353
101353
101353
245953
249066
113570
250110
168755
101353
250045
144415
250026
115357
237404
106187
249955
101353
250339
101353
102923
101852
252423
101353
250069
101503
205167
101395
112482
101353
101363
249810
101355
101353
101354
101353
101353
101353
249462
250104
503343
457188
101353
101353
101353
250053
282721
243506
101353
101353
334326
101353
101353
101353
250040
101353
249416
101353
101353
250071
101353
249907

VECTORS velocity float
852.4 -3.88069e-14 0.0
812.631 32.4323 0.0
705.033 188.888 0.0
593.118 3.17067 0.0
852.4 -2.49821e-14 0.0
852.4 -9.75903e-14 0.0
852.4 -1.03751e-13 0.0
852.4 -5.22238e-14 0.0
852.4 -5.87662e-14 0.0
852.4 -3.48112e-14 0.0
852.4 -3.19884e-14 0.0
852.4 -2.66032e-14 0.0
730.475 106.041 0.0
713.111 142.328 0.0
703.347 160.831 0.0
697.987 178.297 0.0
699.073 185.937 0.0
700.606 188.343 0.0
701.231 188.407 0.0
701.901 188.414 0.0
702.528 188.478 0.0
703.084 188.531 0.0
703.409 188.508 0.0
703.566 188.474 0.0
703.764 188.491 0.0
703.892 188.535 0.0
703.988 188.581 0.0
704.073 188.618 0.0
704.161 188.646 0.0
704.241 188.675 0.0
704.312 188.702 0.0
704.386 188.721 0.0
704.442 188.737 0.0
704.521 188.754 0.0
704.58 188.774 0.0
704.632 188.791 0.0
704.675 188.805 0.0
704.717 188.817 0.0
704.766 188.83 0.0
704.812 188.844 0.0
704.858 188.855 0.0
704.894 188.864 0.0
704.931 188.875 0.0
704.968 188.884 0.0
705.004 188.891 0.0
705.102 188.842 0.0
705.226 188.695 0.0
705.326 188.244 0.0
704.991 186.604 0.0
703.224 181.558 0.0
696.273 164.517 0.0
678.56 132.405 0.0
651.065 87.1344 0.0
623.568 45.2692 0.0
604.64 20.5199 0.0
595.566 8.47301 0.0
596.974 2.98962 0.0
604.724 4.60966 0.0
617.751 7.33513 0.0
636.244 12.0619 0.0
662.947 18.8696 0.0
700.116 27.4103 0.0
746.715 33.3557 0.0
791.155 29.0947 0.0
825.647 16.795 0.0
842.32 7.31613 0.0
849.104 2.4873 0.0
851.358 0.80013 0.0
852.077 0.253049 0.0
852.306 0.0751615 0.0
852.375 0.0203927 0.0
852.394 0.00475306 0.0
852.399 0.000923944 0.0
852.4 0.00016206 0.0
852.4 2.24563e-05 0.0
852.4 3.70998e-06 0.0
852.4 6.51805e-07 0.0
852.4 5.61592e-09 0.0
852.4 3.77755e-14 0.0
852.4 -2.98355e-14 0.0
852.4 -2.48123e-14 0.0
852.4 -3.3723e-14 0.0
852.4 1.82339e-14 0.0
852.4 -2.00851e-14 0.0
852.4 3.39343e-14 0.0
852.4 3.7011e-14 0.0
852.4 2.90058e-14 0.0
852.4 3.30873e-14 0.0
852.4 3.63595e-14 0.0
852.4 1.84348e-14 0.0
852.4 -3.84093e-14 0.0
852.4 -3.6553e-14 0.0
852.4 -2.47489e-14 0.0
852.4 -2.24675e-14 0.0
852.4 7.04582e-15 0.0
852.4 -3.99028e-14 0.0
852.4 -3.86636e-14 0.0
852.4 -1.11689e-14 0.0
852.4 2.92417e-14 0.0
852.4 4.67665e-14 0.0
852.4 3.06945e-14 0.0
852.4 -2.39628e-14 0.0
852.4 -3.19839e-14 0.0
852.4 3.9083e-14 0.0
852.4 4.51765e-14 0.0
852.4 2.88294e-14 0.0
852.4 3.27622e-14 0.0
852.4 3.22479e-14 0.0
852.4 -2.93384e-14 0.0
852.4 -2.77304e-14 0.0
852.4 1.20255e-14 0.0
852.4 -3.99171e-14 0.0
852.4 1.91996e-14 0.0
852.4 -4.32832e-14 0.0
717.638 171.17 0.0
852.4 3.30369e-14 0.0
703.895 187.328 0.0
852.4 2.55122e-14 0.0
704.421 188.182 0.0
852.4 2.80698e-14 0.0
852.4 1.16852e-08 0.0
704.37 188.59 0.0
852.4 0.000346167 0.0
704.502 188.73 0.0
704.728 188.804 0.0
852.32 0.162404 0.0
773.02 78.2373 0.0
852.4 -1.62301e-14 0.0
704.922 188.863 0.0
703.112 179.971 0.0
852.4 -2.72424e-14 0.0
852.4 3.52457e-14 0.0
843.555 14.8559 0.0
852.4 -2.77825e-14 0.0
666.014 51.9318 0.0
786.731 92.4169 0.0
852.4 -2.69669e-14 0.0
852.4 -1.62818e-14 0.0
705.01 188.887 0.0
645.665 76.7309 0.0
852.4 -2.86975e-14 0.0
851.517 1.70538 0.0
852.395 0.0104107 0.0
852.4 7.55674e-06 0.0
852.4 2.71622e-14 0.0
852.4 3.15205e-14 0.0
852.4 -8.66731e-14 0.0
852.4 4.65042e-14 0.0
852.4 3.10586e-14 0.0
707.123 182.382 0.0
703.962 188.21 0.0
704.262 188.481 0.0
704.416 188.684 0.0
704.673 188.772 0.0
704.824 188.835 0.0
705.543 188.221 0.0
618.849 22.0276 0.0
705.196 188.831 0.0
852.4 -1.92846e-14 0.0
852.4 -2.50471e-14 0.0
603.021 16.9091 0.0
852.4 -2.6184e-14 0.0
852.4 -3.31804e-14 0.0
852.4 -3.8407e-14 0.0
852.4 -1.75523e-14 0.0
852.4 -3.05982e-14 0.0
852.4 -1.65554e-14 0.0
852.4 2.74115e-14 0.0
852.4 4.52271e-15 0.0
852.4 -2.15309e-15 0.0
852.4 -1.59615e-14 0.0
852.4 3.16124e-15 0.0
852.4 -2.66643e-14 0.0
852.4 -3.18185e-14 0.0
852.4 -2.51862e-14 0.0
852.4 -1.38338e-14 0.0
852.4 2.23667e-14 0.0
852.4 1.74561e-14 0.0
852.4 1.10931e-14 0.0
852.4 2.57381e-14 0.0
852.4 -7.76303e-15 0.0
852.4 -2.20611e-15 0.0
852.4 -3.48575e-14 0.0
852.4 9.544e-16 0.0
852.4 -2.14869e-14 0.0
852.4 1.67312e-14 0.0
852.4 -1.46666e-14 0.0
852.4 0.000487991 0.0
852.4 0.00021796 0.0
852.4 2.99202e-15 0.0
852.4 9.73227e-05 0.0
852.393 0.0171185 0.0
852.397 0.0077027 0.0
852.33 0.159852 0.0
852.367 0.075519 0.0
852.4 -2.04968e-14 0.0
852.4 3.37901e-14 0.0
851.974 0.951484 0.0
852.194 0.466132 0.0
850.406 4.2623 0.0
851.413 2.16904 0.0
844.661 15.1014 0.0
848.482 8.1145 0.0
851.912 1.09225 0.0
850.419 4.26746 0.0
838.885 24.8276 0.0
845.375 13.973 0.0
816.168 57.4527 0.0
830.467 37.5695 0.0
852.4 4.34721e-05 0.0
852.4 1.90476e-14 0.0
787.09 95.5566 0.0
804.1 73.8048 0.0
852.4 3.45177e-14 0.0
852.4 2.5928e-14 0.0
760.854 127.946 0.0
776.061 109.749 0.0
820.356 52.1962 0.0
792.513 89.342 0.0
752.469 138.34 0.0
766.043 122.486 0.0
735.271 158.328 0.0
745.221 147.276 0.0
723.918 171.132 0.0
730.752 163.922 0.0
852.158 0.546784 0.0
716.868 178.911 0.0
721.307 174.481 0.0
851.518 1.93362 0.0
852.4 8.47824e-15 0.0
852.4 3.20236e-14 0.0
852.4 1.64491e-14 0.0
852.4 3.04704e-14 0.0
852.4 -2.30583e-14 0.0
712.625 183.483 0.0
715.437 180.847 0.0
710.102 186.106 0.0
711.908 184.565 0.0
718.982 177.361 0.0
714.146 182.51 0.0
709.789 186.71 0.0
711.273 185.491 0.0
708.537 187.902 0.0
709.538 187.222 0.0
757.184 133.768 0.0
770.502 115.861 0.0
833.306 33.6219 0.0
852.4 -2.04947e-14 0.0
852.4 -2.87711e-14 0.0
707.776 188.555 0.0
708.489 188.193 0.0
707.296 188.897 0.0
707.837 188.711 0.0
852.4 1.71965e-14 0.0
852.4 -3.98425e-14 0.0
718.632 176.591 0.0
709.33 187.612 0.0
708.42 188.314 0.0
852.4 2.81469e-14 0.0
717.054 179.639 0.0
706.974 189.061 0.0
852.4 1.27282e-14 0.0
852.4 3.06003e-14 0.0
710.286 186.558 0.0
708.929 187.247 0.0
852.4 3.22745e-14 0.0
708.715 187.159 0.0
837.209 27.055 0.0
707.719 188.367 0.0
852.4 -1.31306e-14 0.0
852.4 -4.60296e-15 0.0
852.4 -3.48328e-14 0.0
848.766 7.62054 0.0
852.4 2.93351e-14 0.0
852.384 0.0356341 0.0
707.789 188.52 0.0
706.81 188.987 0.0
852.4 -2.50057e-14 0.0
852.4 9.18281e-15 0.0
852.4 -2.08355e-14 0.0
852.4 -1.69848e-14 0.0
852.4 3.48547e-14 0.0
852.4 -1.99071e-14 0.0
707.814 186.817 0.0
852.4 2.96008e-14 0.0
852.4 3.95335e-14 0.0
852.4 2.49137e-14 0.0
852.4 2.30394e-14 0.0
852.4 3.18362e-14 0.0
852.4 2.93555e-14 0.0
711.147 184.105 0.0
714.159 182.224 0.0
852.4 -2.36112e-14 0.0
852.4 -1.84599e-14 0.0
852.4 -1.36462e-16 0.0
852.4 -3.40122e-14 0.0
852.4 0.00109317 0.0
852.363 0.0846229 0.0
852.316 0.188245 0.0
851.722 1.48419 0.0
850.949 3.08191 0.0
844.449 15.051 0.0
835.863 28.0235 0.0
804.88 69.8997 0.0
849.28 6.32203 0.0
822.464 47.0968 0.0
770.719 112.901 0.0
789.381 90.3055 0.0
812.042 62.4 0.0
794.137 85.3146 0.0
764.919 121.709 0.0
749.933 139.066 0.0
731.627 160.32 0.0
852.4 1.92068e-14 0.0
852.4 4.0368e-14 0.0
852.4 1.17184e-14 0.0
852.4 3.4248e-14 0.0
852.4 1.94291e-14 0.0
852.4 1.96039e-14 0.0
852.4 3.88601e-06 0.0
852.4 1.73766e-06 0.0
852.4 -3.25345e-14 0.0
852.4 -3.18548e-14 0.0
852.4 -3.20869e-14 0.0
707.237 188.207 0.0
852.4 -3.01653e-14 0.0
852.4 2.8454e-14 0.0
852.4 -3.41657e-14 0.0
715.891 176.853 0.0
710.687 176.572 0.0