<VTKFile type="UnstructuredGrid" version="1.0" byte_order="LittleEndian" header_type="UInt64">
  <UnstructuredGrid>
    <Piece NumberOfPoints="864" NumberOfCells="1612">
      <PointData Scalars="density" Vectors="velocity">
        <DataArray type="Float32" Name="density" format="ascii" RangeMin="1.2223800420761108" RangeMax="3.783479928970337">
          1.2223800420761108 1.5509300231933594 2.2525699138641357 3.783479928970337 1.2223800420761108 1.2223800420761108
          1.2223800420761108 1.2223800420761108 1.2223800420761108 1.2223800420761108 1.2223800420761108 1.2223800420761108
          2.17726993560791 2.2507801055908203 2.3012800216674805 2.307460069656372 2.2758400440216064 2.252530097961426
          2.24603009223938 2.242650032043457 2.2400801181793213 2.238879919052124 2.238919973373413 2.23976993560791
          2.2415499687194824 2.2429699897766113 2.2439498901367188 2.244719982147217 2.2455599308013916 2.2461700439453125
          2.2466399669647217 2.2471699714660645 2.247529983520508 2.248159885406494 2.2486400604248047 2.2490200996398926
          2.249350070953369 2.2496800422668457 2.2500500679016113 2.250380039215088 2.2507400512695312 2.251009941101074
          2.251310110092163 2.251660108566284 2.252079963684082 2.253509998321533 2.2561800479888916 2.2620599269866943
          2.2762200832366943 2.312309980392456 2.4242401123046875 2.6540799140930176 3.004199981689453 3.3777899742126465
          3.618000030517578 3.7358100414276123 3.746380090713501 3.6519899368286133 3.5015900135040283 3.284450054168701
          2.9754300117492676 2.5701301097869873 2.1113600730895996 1.7179399728775024 1.441140055656433 1.3069599866867065
          1.2509599924087524 1.2316099405288696 1.2252600193023682 1.2232199907302856 1.2226099967956543 1.2224299907684326
          1.222390055656433 1.2223800420761108 1.2223800420761108 1.2223800420761108 1.2223800420761108 1.2223800420761108
          1.2223800420761108 1.2223800420761108 1.2223800420761108 1.2223800420761108 1.2223800420761108 1.2223800420761108
          1.2223800420761108 1.2223800420761108 1.2223800420761108 1.2223800420761108 1.2223800420761108 1.2223800420761108
          1.2223800420761108 1.2223800420761108 1.2223800420761108 1.2223800420761108 1.2223800420761108 1.2223800420761108
          1.2223800420761108 1.2223800420761108 1.2223800420761108 1.2223800420761108 1.2223800420761108 1.2223800420761108
          1.2223800420761108 1.2223800420761108 1.2223800420761108 1.2223800420761108 1.2223800420761108 1.2223800420761108
          1.2223800420761108 1.2223800420761108 1.2223800420761108 1.2223800420761108 1.2223800420761108 1.2223800420761108
          2.1161000728607178 1.2223800420761108 2.232110023498535 1.2223800420761108 2.2395100593566895 1.2223800420761108
          1.2223800420761108 2.2454299926757812 1.2223800420761108 2.247620105743408 2.249540090560913 1.2230900526046753
          1.8172800540924072 1.2223800420761108 2.251110076904297 2.324739933013916 1.2223800420761108 1.2223800420761108
          1.2910200357437134 1.2223800420761108 2.8822100162506104 1.6328500509262085 1.2223800420761108 1.2223800420761108
          2.2518999576568604 3.092410087585449 1.2223800420761108 1.2300699949264526 1.2224299907684326 1.2223800420761108
          1.2223800420761108 1.2223800420761108 1.2223800420761108 1.2223800420761108 1.2223800420761108 2.200079917907715
          2.237380027770996 2.243269920349121 2.2467100620269775 2.2488999366760254 2.2503600120544434 2.2646000385284424
          3.4460699558258057 2.254300117492676 1.2223800420761108 1.2223800420761108 3.6388299465179443 1.2223800420761108
          1.2223800420761108 1.2223800420761108 1.2223800420761108 1.2223800420761108 1.2223800420761108 1.2223800420761108
          1.2223800420761108 1.2223800420761108 1.2223800420761108 1.2223800420761108 1.2223800420761108 1.2223800420761108
          1.2223800420761108 1.2223800420761108 1.2223800420761108 1.2223800420761108 1.2223800420761108 1.2223800420761108
          1.2223800420761108 1.2223800420761108 1.2223800420761108 1.2223800420761108 1.2223800420761108 1.2223800420761108
          1.2223800420761108 1.2223800420761108 1.2223800420761108 1.2223800420761108 1.2223800420761108 1.2224500179290771
          1.222409963607788 1.2230099439620972 1.2226799726486206 1.2223800420761108 1.2223800420761108 1.2260799407958984
          1.2242000102996826 1.2388700246810913 1.2308000326156616 1.2809699773788452 1.2537699937820435 1.2266299724578857
          1.238919973373413 1.3202999830245972 1.2766499519348145 1.4657100439071655 1.3750300407409668 1.2223800420761108
          1.2223800420761108 1.6593799591064453 1.5460599660873413 1.2223800420761108 1.2223800420761108 1.8461600542068481
          1.7386900186538696 1.441100001335144 1.6261299848556519 1.9112199544906616 1.813349962234497 2.0432701110839844
          1.969249963760376 2.133090019226074 2.082129955291748 1.2245099544525146 2.189460039138794 2.157449960708618
          1.2298799753189087 1.2223800420761108 1.2223800420761108 1.2223800420761108 1.2223800420761108 1.2223800420761108
          2.223020076751709 2.204390048980713 2.2422499656677246 2.2320799827575684 2.1796600818634033 2.217979907989502
          2.247960090637207 2.2402000427246094 2.2564899921417236 2.25285005569458 1.8824100494384766 1.773550033569336
          1.3581000566482544 1.2223800420761108 1.2223800420761108 2.260809898376465 2.2597200870513916 2.262739896774292
          2.2632598876953125 1.2223800420761108 1.2223800420761108 2.171950101852417 2.257110118865967 2.263230085372925
          1.2223800420761108 2.1974000930786133 2.2633800506591797 1.2223800420761108 1.2223800420761108 2.253469944000244
          2.264859914779663 1.2223800420761108 2.2486801147460938 1.32955002784729 2.258120059967041 1.2223800420761108
          1.2223800420761108 1.2223800420761108 1.2519199848175049 1.2223800420761108 1.2225199937820435 2.2674100399017334
          2.2614400386810303 1.2223800420761108 1.2223800420761108 1.2223800420761108 1.2223800420761108 1.2223800420761108
          1.2223800420761108 2.2761600017547607 1.2223800420761108 1.2223800420761108 1.2223800420761108 1.2223800420761108
          1.2223800420761108 1.2223800420761108 2.2532598972320557 2.225909948348999 1.2223800420761108 1.2223800420761108
          1.2223800420761108 1.2223800420761108 1.222390055656433 1.2227100133895874 1.2231199741363525 1.2281299829483032
          1.2342499494552612 1.2803800106048584 1.3334499597549438 1.5255399942398071 1.2465900182724 1.4172500371932983
          1.7539499998092651 1.6299200057983398 1.4892300367355347 1.6044700145721436 1.8073099851608276 1.9132000207901
          2.052870035171509 1.2223800420761108 1.2223800420761108 1.2223800420761108 1.2223800420761108 1.2223800420761108
          1.2223800420761108 1.2223800420761108 1.2223800420761108 1.2223800420761108 1.2223800420761108 1.2223800420761108
          2.2719199657440186 1.2223800420761108 1.2223800420761108 1.2223800420761108 2.221590042114258 2.277790069580078
          1.2223800420761108 1.2223800420761108 2.29325008392334 1.2223800420761108 2.1611099243164062 1.9465800523757935
          1.2223800420761108 1.2223800420761108 1.4176000356674194 1.2709399461746216 2.116039991378784 2.180690050125122
          2.1426799297332764 1.2223800420761108 2.216370105743408 2.1957099437713623 1.2223800420761108 1.2223800420761108
          1.2223800420761108 1.2223800420761108 1.2223800420761108 1.2223800420761108 1.2223800420761108 1.2223800420761108
          1.2223800420761108 1.2223800420761108 1.222390055656433 1.222390055656433 1.2224299907684326 1.222409963607788
          1.2226500511169434 1.2225099802017212 2.187849998474121 2.0807600021362305 1.22353994846344 1.2229700088500977
          1.2223800420761108 1.2223800420761108 1.533750057220459 1.3180700540542603 1.8731199502944946 1.2223800420761108
          1.2223800420761108 1.2223999500274658 2.235219955444336 2.224950075149536 1.2223800420761108 1.2223800420761108
          1.2223800420761108 1.2223800420761108 1.2223800420761108 1.2223800420761108 1.2223800420761108 1.2223800420761108
          1.2223800420761108 1.2223800420761108 2.266079902648926 2.267519950866699 2.2631800174713135 1.4075100421905518
          2.255239963531494 2.255889892578125 2.257319927215576 2.2520999908447266 2.255160093307495 2.2532498836517334
          2.2534899711608887 2.2528200149536133 2.2532899379730225 2.2484800815582275 2.2502200603485107 1.2223800420761108
          1.2302900552749634 1.2396399974822998 1.2267400026321411 1.2246400117874146 1.2226899862289429 1.2235599756240845
          1.230080008506775 1.2264699935913086 1.2463500499725342 1.2354099750518799 1.2902899980545044 1.2605899572372437
          1.3964600563049316 1.325510025024414 1.5659099817276 1.4608399868011475 1.7513600587844849 1.6439299583435059
          1.6769200563430786 1.2659599781036377 1.2223800420761108 2.3147099018096924 2.3742098808288574 2.459089994430542
          1.914520025253296 2.165290117263794 2.20851993560791 2.239530086517334 2.2321300506591797 2.2469398975372314
          2.238640069961548 1.2228100299835205 1.2712899446487427 2.1838901042938232 2.263309955596924 2.259819984436035
          1.2223800420761108 1.2223800420761108 2.260420083999634 2.257230043411255 2.257930040359497 2.2548999786376953
          2.255539894104004 2.2565999031066895 1.7695599794387817 1.2229100465774536 2.265749931335449 1.2223800420761108
          1.2223800420761108 2.1292500495910645 1.8239599466323853 2.401010036468506 1.2223800420761108 2.2072999477386475
          2.1643900871276855 1.3901699781417847 1.259950041770935 1.2223800420761108 1.2223800420761108 1.2223800420761108
          1.5121400356292725 1.2223800420761108 2.323770046234131 1.2223800420761108 2.2471399307250977 1.997630000114441
          1.8402299880981445 1.3914300203323364 1.2225899696350098 1.3356800079345703 1.222390055656433 1.2251399755477905
          1.6922600269317627 1.2223800420761108 1.2223800420761108 1.2223800420761108 1.2456200122833252 1.2223800420761108
          1.2223800420761108 1.2223800420761108 2.258620023727417 2.2561800479888916 2.2111001014709473 2.25137996673584
          1.2223800420761108 1.224769949913025 1.2223800420761108 1.2223800420761108 1.222540020942688 2.2708799839019775
          2.031749963760376 1.8886699676513672 1.3047699928283691 1.2224199771881104 2.61395001411438 2.8169000148773193
          1.2223800420761108 1.9383000135421753 1.2223800420761108 1.2223800420761108 2.239579916000366 1.2223800420761108
          1.2223800420761108 2.2443199157714844 2.2528700828552246 2.252650022506714 3.080579996109009 2.2260000705718994
          2.199589967727661 2.24891996383667 1.2223800420761108 2.2365200519561768 1.2223800420761108 2.250839948654175
          1.2223800420761108 2.2337400913238525 2.2652699947357178 1.2223800420761108 1.2223800420761108 1.2223800420761108
          2.2194199562072754 2.1493399143218994 2.250200033187866 2.249269962310791 1.223449945449829 1.2223800420761108
          1.2229299545288086 1.2223800420761108 2.2000598907470703 1.2224899530410767 2.244379997253418 1.2223800420761108
          1.2223800420761108 1.2223800420761108 3.2060000896453857 1.2223800420761108 2.4626801013946533 2.374650001525879
          2.0819098949432373 2.1403799057006836 2.040489912033081 2.182260036468506 2.1041200160980225 1.9750699996948242
          2.228559970855713 2.2594900131225586 2.256160020828247 2.253770112991333 2.2545199394226074 2.2523999214172363
          2.2797698974609375 2.258270025253296 2.257580041885376 2.2553999423980713 2.2549500465393066 2.257309913635254
          2.254349946975708 2.251889944076538 2.2567899227142334 2.25393009185791 2.2533199787139893 2.25954008102417
          1.6457300186157227 2.265010118484497 1.2224299907684326 2.4934399127960205 2.123769998550415 2.228800058364868
          1.8540799617767334 1.9469000101089478 1.7875100374221802 1.6382999420166016 2.251310110092163 1.2223800420761108
          1.9427399635314941 2.243030071258545 1.2223800420761108 1.576300024986267 1.8801499605178833 1.3408299684524536
          1.4189599752426147 1.3000400066375732 1.490779995918274 1.2237000465393066 2.255579948425293 2.2530100345611572
          2.252739906311035 1.7240500450134277 1.224660038948059 1.2223800420761108 1.2223800420761108 1.2223800420761108
          1.2223800420761108 1.222390055656433 2.235960006713867 1.245959997177124 1.2542799711227417 1.2831000089645386
          1.2247899770736694 1.2223800420761108 1.2223800420761108 1.2223800420761108 1.2223800420761108 1.2223800420761108
          1.2225699424743652 1.222390055656433 1.2223800420761108 1.2223800420761108 1.2223800420761108 1.2223800420761108
          1.2223800420761108 1.2223800420761108 1.2223800420761108 1.2223800420761108 1.2223800420761108 1.2223800420761108
          1.2223800420761108 1.2223800420761108 1.2223800420761108 1.2223800420761108 1.2223800420761108 1.2223800420761108
          1.236799955368042 1.2223800420761108 1.2223800420761108 1.2223800420761108 1.2223800420761108 1.2223800420761108
          1.2223800420761108 1.2223800420761108 1.2223800420761108 1.2223800420761108 1.2223800420761108 1.5703599452972412
          1.3910800218582153 1.465499997138977 1.2240099906921387 1.2225300073623657 1.2374099493026733 1.2223800420761108
          1.2223800420761108 2.260580062866211 1.2223800420761108 1.2223800420761108 1.2223800420761108 1.2223800420761108
          1.2223800420761108 1.2223800420761108 1.2223800420761108 1.2223800420761108 1.2223800420761108 1.2223800420761108
          2.295259952545166 2.2527499198913574 1.2223800420761108 2.2507200241088867 2.248569965362549 1.3921500444412231
          1.2223800420761108 1.2223800420761108 1.2223800420761108 1.2223800420761108 1.2223800420761108 1.2223800420761108
          1.2223800420761108 1.2223800420761108 1.2223800420761108 1.974020004272461 1.2223800420761108 1.2223800420761108
          1.2223800420761108 1.9612400531768799 2.1668100357055664 2.221169948577881 2.2329599857330322 2.2442400455474854
          2.2462000846862793 1.2223800420761108 2.005350112915039 2.250610113143921 1.2223800420761108 1.2223800420761108
          1.2223800420761108 2.259390115737915 2.2791199684143066 1.2223800420761108 1.2223800420761108 1.2223800420761108
          1.2223800420761108 1.2223800420761108 1.2223800420761108 1.2223800420761108 1.2237199544906616 1.2223800420761108
          1.223270058631897 1.2223800420761108 1.2223800420761108 1.252150058746338 1.2309900522232056 1.2224500179290771
          1.2259800434112549 2.091279983520508 1.3099299669265747 1.2230600118637085 1.2223800420761108 1.2301299571990967
          1.2869900465011597 2.244040012359619 1.2223800420761108 1.2223800420761108 1.2223800420761108 1.2223800420761108
          2.0248498916625977 1.2223800420761108 2.241849899291992 2.2802999019622803 1.2226200103759766 2.212709903717041
          1.2223800420761108 2.2572200298309326 1.9964300394058228 1.5115100145339966 1.2223800420761108 1.222390055656433
          1.2223999500274658 1.2223800420761108 1.2223800420761108 2.151479959487915 1.2223999500274658 1.2223800420761108
          2.103140115737915 1.2223800420761108 2.237260103225708 1.7008899450302124 1.222480058670044 1.2223999500274658
          1.2223800420761108 1.226830005645752 1.2223800420761108 1.2223800420761108 1.2381900548934937 2.2633700370788574
          1.249150037765503 2.246609926223755 1.2223800420761108 1.2223800420761108 2.3489999771118164 1.5177899599075317
          2.122999906539917 1.7067999839782715 2.2499101161956787 1.2223800420761108 1.5982999801635742 2.755009889602661
          2.261039972305298 2.2284200191497803 2.0207901000976562 2.1171998977661133 1.2223800420761108 2.0657200813293457
          2.1683599948883057 2.0669798851013184 2.2614500522613525 2.259190082550049 1.2223800420761108 1.2224500179290771
          1.2223800420761108 1.222409963607788 1.2223800420761108 3.3139801025390625 1.2223800420761108 2.0822598934173584
          2.2474300861358643 1.230720043182373 2.6772100925445557 2.5874500274658203 1.2223800420761108 3.611560106277466
          3.421339988708496 2.2492499351501465 1.2223800420761108 2.1465001106262207 2.4649600982666016 2.098860025405884
          3.053839921951294 2.2512500286102295 2.038949966430664 1.9671399593353271 2.2271199226379395 1.2223800420761108
          1.2223800420761108 2.023590087890625 1.2223800420761108 1.8242000341415405 2.2463700771331787 1.2223800420761108
          1.6372900009155273 1.750599980354309 1.2223800420761108 1.222390055656433 1.2223800420761108 1.2223800420761108
          1.2223800420761108 1.2223800420761108 2.219899892807007 2.2414400577545166 1.3195600509643555 2.2527499198913574
          1.7286800146102905 1.2223800420761108 2.251840114593506 1.5543800592422485 2.2507801055908203 1.33610999584198
          2.1630499362945557 1.2628599405288696 2.249300003051758 1.2223800420761108 2.2596499919891357 1.2223800420761108
          1.2357399463653564 1.2266600131988525 2.2790300846099854 1.2223800420761108 2.25150990486145 1.223680019378662
          1.9493000507354736 1.2227400541305542 1.3098399639129639 1.2223800420761108 1.2224700450897217 2.247380018234253
          1.2223999500274658 1.2223800420761108 1.222390055656433 1.2223800420761108 1.2223800420761108 1.2223800420761108
          2.2435901165008545 2.25393009185791 3.7196600437164307 3.467449903488159 1.2223800420761108 1.2223800420761108
          1.2223800420761108 2.251800060272217 2.470360040664673 2.202159881591797 1.2223800420761108 1.2223800420761108
          2.779789924621582 1.2223800420761108 1.2223800420761108 1.2223800420761108 2.2507200241088867 1.2223800420761108
          2.2390599250793457 1.2223800420761108 1.2223800420761108 2.2526800632476807 1.2223800420761108 2.2477800846099854
        </DataArray>
        <DataArray type="Float32" Name="pressure" format="ascii" RangeMin="101353" RangeMax="515329">
          101353 143239 250124 515329 101353 101353
          101353 101353 101353 101353 101353 101353
          238212 251397 259827 260948 255919 252206
          251038 250377 249866 249570 249500 249567
          249717 249835 249904 249946 249988 250007
          250017 250029 250033 250047 250056 250060
          250063 250067 250069 250069 250072 250074
          250076 250083 250097 250172 250352 250870
          252603 257780 275403 313567 374638 441947
          485802 506777 508048 489868 461315 421045
          365618 296492 223498 165785 128392 111477
          104711 102429 101688 101451 101379 101359
          101354 101353 101353 101353 101353 101353
          101353 101353 101353 101353 101353 101353
          101353 101353 101353 101353 101353 101353
          101353 101353 101353 101353 101353 101353
          101353 101353 101353 101353 101353 101353
          101353 101353 101353 101353 101353 101353
          101353 101353 101353 101353 101353 101353
          231042 101353 248526 101353 249261 101353
          101353 249873 101353 250008 250049 101436
          180831 101353 250063 259380 101353 101353
          109651 101353 350893 158416 101353 101353
          250077 389842 101353 102252 101358 101353
          101353 101353 101353 101353 101353 243729
          249163 249719 249971 250026 250060 250960
          451979 250185 101353 101353 488892 101353
          101353 101353 101353 101353 101353 101353
          101353 101353 101353 101353 101353 101353
          101353 101353 101353 101353 101353 101353
          101353 101353 101353 101353 101353 101353
          101353 101353 101353 101353 101353 101361
          101356 101426 101387 101353 101353 101786
          101565 103310 102344 108497 105116 101851
          103312 113470 107936 132619 120537 101353
          101353 159332 143471 101353 101353 186169
          170501 129232 154499 195592 181153 215305
          204054 228974 221019 101602 237694 232531
          102236 101353 101353 101353 101353 101353
          242984 239816 246099 244200 235768 241750
          246791 245291 248260 247378 191071 175744
          118280 101353 101353 249087 248582 249545
          249275 101353 101353 235184 247890 248966
          101353 238371 249801 101353 101353 247097
          248964 101353 247467 114707 248881 101353
          101353 101353 104882 101353 101369 249748
          249728 101353 101353 101353 101353 101353
          101353 250829 101353 101353 101353 101353
          101353 101353 246884 242607 101353 101353
          101353 101353 101353 101391 101439 102030
          102764 108492 115384 141385 104275 126453
          173981 155862 135922 151924 180976 196854
          217951 101353 101353 101353 101353 101353
          101353 101353 101353 101353 101353 101353
          250585 101353 101353 101353 241822 250553
          101353 101353 253611 101353 232556 202571
          101353 101353 126724 107340 228072 238212
          231818 101353 243931 240175 101353 101353
          101353 101353 101353 101353 101353 101353
          101353 101353 101354 101353 101359 101356
          101384 101368 236726 220392 101488 101421
          101353 101353 142954 113489 191967 101353
          101353 101354 247074 244911 101353 101353
          101353 101353 101353 101353 101353 101353
          101353 101353 250011 250384 250080 124991
          248659 249193 249600 248419 249544 249057
          249763 249469 249900 248130 248888 101353
          102297 103448 101862 101616 101389 101490
          102255 101830 104197 102887 109604 105926
          123246 114054 145990 131754 171990 156867
          161462 106588 101353 256630 266218 279780
          195688 234992 241844 247378 245698 248704
          246414 101403 107255 237590 250248 250088
          101353 101353 250037 250059 250037 250055
          250040 250080 177181 101415 248583 101353
          101353 227777 182531 270137 101353 242948
          236095 123340 106030 101353 101353 101353
          140828 101353 258541 101353 249258 207979
          186327 122528 101377 115573 101354 101676
          164218 101353 101353 101353 104105 101353
          101353 101353 250004 250019 240398 249711
          101353 101631 101353 101353 101372 251053
          212918 191789 111930 101357 305785 340506
          101353 203099 101353 101353 248280 101353
          101353 249289 250058 250061 387461 246483
          242169 249639 101353 248247 101353 249968
          101353 248233 250704 101353 101353 101353
          243248 231914 249382 249853 101477 101353
          101418 101353 239844 101366 247796 101353
          101353 101353 408084 101353 280780 266811
          223219 232799 217324 239979 227731 207950
          244411 250166 250119 250077 250060 250088
          251941 249309 249812 249910 249977 249924
          250012 250033 249985 250029 250046 249846
          158614 249695 101359 285359 226517 246460
          186829 200481 177218 158105 249893 101353
          200575 248491 101353 147786 191482 116023
          126218 110838 135795 101506 249787 249968
          250004 169101 101619 101353 101353 101353
          101353 101353 245330 104139 105190 108794
          101634 101353 101353 101353 101353 101353
          101375 101354 101353 101353 101353 101353
          101353 101353 101353 101353 101353 101353
          101353 101353 101353 101353 101353 101353
          103053 101353 101353 101353 101353 101353
          101353 101353 101353 101353 101353 146192
          122365 132286 101543 101370 103140 101353
          101353 249429 101353 101353 101353 101353
          101353 101353 101353 101353 101353 101353
          254491 247882 101353 250003 250009 122853
          101353 101353 101353 101353 101353 101353
          101353 101353 101353 205692 101353 101353
          101353 207640 238813 246891 248507 249795
          249934 101353 211068 250063 101353 101353
          101353 249658 250969 101353 101353 101353
          101353 101353 101353 101353 101513 101353
          101456 101353 101353 104944 102365 101361
          101777 223514 112114 101431 101353 102260
          109167 246985 101353 101353 101353 101353
          213110 101353 249550 252927 101381 241586
          101353 250320 208421 139150 101353 101354
          101355 101353 101353 230966 101355 101353
          224578 101353 244501 169018 101365 101355
          101353 101873 101353 101353 103221 249955
          104539 246147 101353 101353 261840 139481
          228108 165738 250056 101353 150482 329456
          249981 243232 211593 226170 101353 218238
          233794 219274 249890 249948 101353 101361
          101353 101357 101353 428634 101353 224934
          249987 102332 317255 301063 101353 483029
          449632 250039 101353 230523 280639 223199
          381752 250065 214169 203461 242522 101353
          101353 211432 101353 182156 249623 101353
          155677 175290 101353 101353 101353 101353
          101353 101353 245953 249066 113570 250110
          168755 101353 250045 144415 250026 115357
          237404 106187 249955 101353 250339 101353
          102923 101852 252423 101353 250069 101503
          205167 101395 112482 101353 101363 249810
          101355 101353 101354 101353 101353 101353
          249462 250104 503343 457188 101353 101353
          101353 250053 282721 243506 101353 101353
          334326 101353 101353 101353 250040 101353
          249416 101353 101353 250071 101353 249907
        </DataArray>
        <DataArray type="Float32" Name="velocity" NumberOfComponents="3" format="ascii" RangeMin="593.1264557267701" RangeMax="852.4000244147635">
          852.4000244140625 -3.8806899181750495e-14 0 812.6309814453125 32.43230056762695 0
          705.0330200195312 188.88800048828125 0 593.1179809570312 3.1706700325012207 0
          852.4000244140625 -2.4982100061050373e-14 0 852.4000244140625 -9.759029793044577e-14 0
          852.4000244140625 -1.0375099894878795e-13 0 852.4000244140625 -5.222379942230494e-14 0
          852.4000244140625 -5.876619720360243e-14 0 852.4000244140625 -3.481120082406315e-14 0
          852.4000244140625 -3.1988399152834204e-14 0 852.4000244140625 -2.6603200843416594e-14 0
          730.4749755859375 106.04100036621094 0 713.1110229492188 142.3280029296875 0
          703.3469848632812 160.83099365234375 0 697.9869995117188 178.2969970703125 0
          699.072998046875 185.93699645996094 0 700.6060180664062 188.34300231933594 0
          701.2310180664062 188.40699768066406 0 701.9010009765625 188.41400146484375 0
          702.5280151367188 188.47799682617188 0 703.083984375 188.531005859375 0
          703.4089965820312 188.50799560546875 0 703.5659790039062 188.4739990234375 0
          703.7639770507812 188.49099731445312 0 703.8920288085938 188.53500366210938 0
          703.9879760742188 188.58099365234375 0 704.072998046875 188.6179962158203 0
          704.1610107421875 188.64599609375 0 704.2410278320312 188.6750030517578 0
          704.31201171875 188.70199584960938 0 704.385986328125 188.7209930419922 0
          704.4420166015625 188.73699951171875 0 704.52099609375 188.75399780273438 0
          704.5800170898438 188.7740020751953 0 704.6320190429688 188.79100036621094 0
          704.6749877929688 188.80499267578125 0 704.7169799804688 188.81700134277344 0
          704.7659912109375 188.8300018310547 0 704.81201171875 188.843994140625 0
          704.8579711914062 188.85499572753906 0 704.8939819335938 188.86399841308594 0
          704.9310302734375 188.875 0 704.968017578125 188.88400268554688 0
          705.0040283203125 188.89100646972656 0 705.1019897460938 188.8419952392578 0
          705.2260131835938 188.69500732421875 0 705.3259887695312 188.24400329589844 0
          704.9910278320312 186.60400390625 0 703.2239990234375 181.55799865722656 0
          696.2730102539062 164.51699829101562 0 678.5599975585938 132.40499877929688 0
          651.0650024414062 87.1343994140625 0 623.5679931640625 45.26919937133789 0
          604.6400146484375 20.519899368286133 0 595.5659790039062 8.473010063171387 0
          596.9739990234375 2.9896199703216553 0 604.7239990234375 4.6096601486206055 0
          617.7509765625 7.335130214691162 0 636.2440185546875 12.06190013885498 0
          662.947021484375 18.869600296020508 0 700.1160278320312 27.41029930114746 0
          746.7150268554688 33.3557014465332 0 791.155029296875 29.09469985961914 0
          825.64697265625 16.795000076293945 0 842.3200073242188 7.3161301612854 0
          849.10400390625 2.487299919128418 0 851.3579711914062 0.8001300096511841 0
          852.0770263671875 0.25304898619651794 0 852.3060302734375 0.07516150176525116 0
          852.375 0.020392699167132378 0 852.3939819335938 0.004753060173243284 0
          852.3989868164062 0.0009239439968951046 0 852.4000244140625 0.0001620599941816181 0
          852.4000244140625 0.000022456299120676704 0 852.4000244140625 0.000003709980092025944 0
          852.4000244140625 6.518050099657557e-7 0 852.4000244140625 5.615920173340783e-9 0
          852.4000244140625 3.7775501043196824e-14 0 852.4000244140625 -2.983549889892974e-14 0
          852.4000244140625 -2.4812300448311987e-14 0 852.4000244140625 -3.3723000656066607e-14 0
          852.4000244140625 1.82339003786244e-14 0 852.4000244140625 -2.0085099355178146e-14 0
          852.4000244140625 3.3934301495088665e-14 0 852.4000244140625 3.7010999598191194e-14 0
          852.4000244140625 2.900579963390805e-14 0 852.4000244140625 3.3087299041020465e-14 0
          852.4000244140625 3.6359499124612865e-14 0 852.4000244140625 1.8434799653054175e-14 0
          852.4000244140625 -3.840929852817754e-14 0 852.4000244140625 -3.6552998719215427e-14 0
          852.4000244140625 -2.4748900032210003e-14 0 852.4000244140625 -2.2467499798009376e-14 0