# vtk DataFile Version 1.0
Supersonic flow over a wedge
ASCII

DATASET UNSTRUCTURED_GRID
POINTS 19566 float
0 0 1
0.4 0 1
2 0.4287 1
2 1 1
0 1 1
0.01 0 1
0.02 0 1
0.03 0 1
0.04 0 1
0.05 0 1
0.06 0 1
0.07 0 1
0.08 0 1
0.09 0 1
0.1 0 1
0.11 0 1
0.12 0 1
0.13 0 1
0.14 0 1
0.15 0 1
0.16 0 1
0.17 0 1
0.18 0 1
0.19 0 1
0.2 0 1
0.21 0 1
0.22 0 1
0.23 0 1
0.24 0 1
0.25 0 1
0.26 0 1
0.27 0 1
0.28 0 1
0.29 0 1
0.3 0 1
0.31 0 1
0.32 0 1
0.33 0 1
0.34 0 1
0.35 0 1
0.36 0 1
0.37 0 1
0.38 0 1
0.39 0 1
0.409639 0.00258253 1
0.419277 0.00516506 1
0.428916 0.00774759 1
0.438554 0.0103301 1
0.448193 0.0129127 1
0.457831 0.0154952 1
0.46747 0.0180777 1
0.477108 0.0206602 1
0.486747 0.0232428 1
0.496386 0.0258253 1
0.506024 0.0284078 1
0.515663 0.0309904 1
0.525301 0.0335729 1
0.53494 0.0361554 1
0.544578 0.038738 1
0.554217 0.0413205 1
0.563855 0.043903 1
0.573494 0.0464855 1
0.583133 0.0490681 1
0.592771 0.0516506 1
0.60241 0.0542331 1
0.612048 0.0568157 1
0.621687 0.0593982 1
0.631325 0.0619807 1
0.640964 0.0645633 1
0.650602 0.0671458 1
0.660241 0.0697283 1
0.66988 0.0723108 1
0.679518 0.0748934 1
0.689157 0.0774759 1
0.698795 0.0800584 1
0.708434 0.082641 1
0.718072 0.0852235 1
0.727711 0.087806 1
0.737349 0.0903886 1
0.746988 0.0929711 1
0.756627 0.0955536 1
0.766265 0.0981361 1
0.775904 0.100719 1
0.785542 0.103301 1
0.795181 0.105884 1
0.804819 0.108466 1
0.814458 0.111049 1
0.824096 0.113631 1
0.833735 0.116214 1
0.843373 0.118796 1
0.853012 0.121379 1
0.862651 0.123961 1
0.872289 0.126544 1
0.881928 0.129127 1
0.891566 0.131709 1
0.901205 0.134292 1
0.910843 0.136874 1
0.920482 0.139457 1
0.93012 0.142039 1
0.939759 0.144622 1
0.949398 0.147204 1
0.959036 0.149787 1
0.968675 0.152369 1
0.978313 0.154952 1
0.987952 0.157534 1
0.99759 0.160117 1
1.00723 0.162699 1
1.01687 0.165282 1
1.02651 0.167864 1
1.03614 0.170447 1
1.04578 0.17303 1
1.05542 0.175612 1
1.06506 0.178195 1
1.0747 0.180777 1
1.08434 0.18336 1
1.09398 0.185942 1
1.10361 0.188525 1
1.11325 0.191107 1
1.12289 0.19369 1
1.13253 0.196272 1
1.14217 0.198855 1
1.15181 0.201437 1
1.16145 0.20402 1
1.17108 0.206602 1
1.18072 0.209185 1
1.19036 0.211767 1
1.2 0.21435 1
1.20964 0.216933 1
1.21928 0.219515 1
1.22892 0.222098 1
1.23855 0.22468 1
1.24819 0.227263 1
1.25783 0.229845 1
1.26747 0.232428 1
1.27711 0.23501 1
1.28675 0.237593 1
1.29639 0.240175 1
1.30602 0.242758 1
1.31566 0.24534 1
1.3253 0.247923 1
1.33494 0.250505 1
1.34458 0.253088 1
1.35422 0.25567 1
1.36386 0.258253 1
1.37349 0.260836 1
1.38313 0.263418 1
1.39277 0.266001 1
1.40241 0.268583 1
1.41205 0.271166 1
1.42169 0.273748 1
1.43133 0.276331 1
1.44096 0.278913 1
1.4506 0.281496 1
1.46024 0.284078 1
1.46988 0.286661 1
1.47952 0.289243 1
1.48916 0.291826 1
1.4988 0.294408 1
1.50843 0.296991 1
1.51807 0.299573 1
1.52771 0.302156 1
1.53735 0.304739 1
1.54699 0.307321 1
1.55663 0.309904 1
1.56627 0.312486 1
1.5759 0.315069 1
1.58554 0.317651 1
1.59518 0.320234 1
1.60482 0.322816 1
1.61446 0.325399 1
1.6241 0.327981 1
1.63373 0.330564 1
1.64337 0.333146 1
1.65301 0.335729 1
1.66265 0.338311 1
1.67229 0.340894 1
1.68193 0.343477 1
1.69157 0.346059 1
1.7012 0.348642 1
1.71084 0.351224 1
1.72048 0.353807 1
1.73012 0.356389 1
1.73976 0.358972 1
1.7494 0.361554 1
1.75904 0.364137 1
1.76867 0.366719 1
1.77831 0.369302 1
1.78795 0.371884 1
1.79759 0.374467 1
1.80723 0.377049 1
1.81687 0.379632 1
1.82651 0.382214 1
1.83614 0.384797 1
1.84578 0.38738 1
1.85542 0.389962 1
1.86506 0.392545 1
1.8747 0.395127 1
1.88434 0.39771 1
1.89398 0.400292 1
1.90361 0.402875 1
1.91325 0.405457 1
1.92289 0.40804 1
1.93253 0.410622 1
1.94217 0.413205 1
1.95181 0.415787 1
1.96145 0.41837 1
1.97108 0.420952 1
1.98072 0.423535 1
1.99036 0.426117 1
2 0.43855 1
2 0.4484 1
2 0.45825 1
2 0.4681 1
2 0.47795 1
2 0.4878 1
2 0.49765 1
2 0.5075 1
2 0.51735 1
2 0.5272 1
2 0.53705 1
2 0.5469 1
2 0.55675 1
2 0.5666 1
2 0.57645 1
2 0.5863 1
2 0.59615 1
2 0.606 1
2 0.61585 1
2 0.6257 1
2 0.63555 1
2 0.6454 1
2 0.65525 1
2 0.6651 1
2 0.67495 1
2 0.6848 1
2 0.69465 1
2 0.7045 1
2 0.71435 1
2 0.7242 1
2 0.73405 1
2 0.7439 1
2 0.75375 1
2 0.7636 1
2 0.77345 1
2 0.7833 1
2 0.79315 1
2 0.803 1
2 0.81285 1
2 0.8227 1
2 0.83255 1
2 0.8424 1
2 0.85225 1
2 0.8621 1
2 0.87195 1
2 0.8818 1
2 0.89165 1
2 0.9015 1
2 0.91135 1
2 0.9212 1
2 0.93105 1
2 0.9409 1
2 0.95075 1
2 0.9606 1
2 0.97045 1
2 0.9803 1
2 0.99015 1
1.99 1 1
1.98 1 1
1.97 1 1
1.96 1 1
1.95 1 1
1.94 1 1
1.93 1 1
1.92 1 1
1.91 1 1
1.9 1 1
1.89 1 1
1.88 1 1
1.87 1 1
1.86 1 1
1.85 1 1
1.84 1 1
1.83 1 1
1.82 1 1
1.81 1 1
1.8 1 1
1.79 1 1
1.78 1 1
1.77 1 1
1.76 1 1
1.75 1 1
1.74 1 1
1.73 1 1
1.72 1 1
1.71 1 1
1.7 1 1
1.69 1 1
1.68 1 1
1.67 1 1
1.66 1 1
1.65 1 1
1.64 1 1
1.63 1 1
1.62 1 1
1.61 1 1
1.6 1 1
1.59 1 1
1.58 1 1
1.57 1 1
1.56 1 1
1.55 1 1
1.54 1 1
1.53 1 1
1.52 1 1
1.51 1 1
1.5 1 1
1.49 1 1
1.48 1 1
1.47 1 1
1.46 1 1
1.45 1 1
1.44 1 1
1.43 1 1
1.42 1 1
1.41 1 1
1.4 1 1
1.39 1 1
1.38 1 1
1.37 1 1
1.36 1 1
1.35 1 1
1.34 1 1
1.33 1 1
1.32 1 1
1.31 1 1
1.3 1 1
1.29 1 1
1.28 1 1
1.27 1 1
1.26 1 1
1.25 1 1
1.24 1 1
1.23 1 1
1.22 1 1
1.21 1 1
1.2 1 1
1.19 1 1
1.18 1 1
1.17 1 1
1.16 1 1
1.15 1 1
1.14 1 1
1.13 1 1
1.12 1 1
1.11 1 1
1.1 1 1
1.09 1 1
1.08 1 1
1.07 1 1
1.06 1 1
1.05 1 1
1.04 1 1
1.03 1 1
1.02 1 1
1.01 1 1
1 1 1
0.99 1 1
0.98 1 1
0.97 1 1
0.96 1 1
0.95 1 1
0.94 1 1
0.93 1 1
0.92 1 1
0.91 1 1
0.9 1 1
0.89 1 1
0.88 1 1
0.87 1 1
0.86 1 1
0.85 1 1
0.84 1 1
0.83 1 1
0.82 1 1
0.81 1 1
0.8 1 1
0.79 1 1
0.78 1 1
0.77 1 1
0.76 1 1
0.75 1 1
0.74 1 1
0.73 1 1
0.72 1 1
0.71 1 1
0.7 1 1
0.69 1 1
0.68 1 1
0.67 1 1
0.66 1 1
0.65 1 1
0.64 1 1
0.63 1 1
0.62 1 1
0.61 1 1
0.6 1 1
0.59 1 1
0.58 1 1
0.57 1 1
0.56 1 1
0.55 1 1
0.54 1 1
0.53 1 1
0.52 1 1
0.51 1 1
0.5 1 1
0.49 1 1
0.48 1 1
0.47 1 1
0.46 1 1
0.45 1 1
0.44 1 1
0.43 1 1
0.42 1 1
0.41 1 1
0.4 1 1
0.39 1 1
0.38 1 1
0.37 1 1
0.36 1 1
0.35 1 1
0.34 1 1
0.33 1 1
0.32 1 1
0.31 1 1
0.3 1 1
0.29 1 1
0.28 1 1
0.27 1 1
0.26 1 1
0.25 1 1
0.24 1 1
0.23 1 1
0.22 1 1
0.21 1 1
0.2 1 1
0.19 1 1
0.18 1 1
0.17 1 1
0.16 1 1
0.15 1 1
0.14 1 1
0.13 1 1
0.12 1 1
0.11 1 1
0.1 1 1
0.09 1 1
0.08 1 1
0.07 1 1
0.06 1 1
0.05 1 1
0.04 1 1
0.03 1 1
0.02 1 1
0.01 1 1
0 0.99 1
0 0.98 1
0 0.97 1
0 0.96 1
0 0.95 1
0 0.94 1
0 0.93 1
0 0.92 1
0 0.91 1
0 0.9 1
0 0.89 1
0 0.88 1
0 0.87 1
0 0.86 1
0 0.85 1
0 0.84 1
0 0.83 1
0 0.82 1
0 0.81 1
0 0.8 1
0 0.79 1
0 0.78 1
0 0.77 1
0 0.76 1
0 0.75 1
0 0.74 1
0 0.73 1
0 0.72 1
0 0.71 1
0 0.7 1
0 0.69 1
0 0.68 1
0 0.67 1
0 0.66 1
0 0.65 1
0 0.64 1
0 0.63 1
0 0.62 1
0 0.61 1
0 0.6 1
0 0.59 1
0 0.58 1
0 0.57 1
0 0.56 1
0 0.55 1
0 0.54 1
0 0.53 1
0 0.52 1
0 0.51 1
0 0.5 1
0 0.49 1
0 0.48 1
0 0.47 1
0 0.46 1
0 0.45 1
0 0.44 1
0 0.43 1
0 0.42 1
0 0.41 1
0 0.4 1
0 0.39 1
0 0.38 1
0 0.37 1
0 0.36 1
0 0.35 1
0 0.34 1
0 0.33 1
0 0.32 1
0 0.31 1
0 0.3 1
0 0.29 1
0 0.28 1
0 0.27 1
0 0.26 1
0 0.25 1
0 0.24 1
0 0.23 1
0 0.22 1
0 0.21 1
0 0.2 1
0 0.19 1
0 0.18 1
0 0.17 1
0 0.16 1
0 0.15 1
0 0.14 1
0 0.13 1
0 0.12 1
0 0.11 1
0 0.1 1
0 0.09 1
0 0.08 1
0 0.07 1
0 0.06 1
0 0.05 1
0 0.04 1
0 0.03 1
0 0.02 1
0 0.01 1
0.604253 0.0638565 1
0.485 0.99134 1
0.00886664 0.516127 1
0.690111 0.0860803 1
0.575 0.99134 1
0.778654 0.110834 1
0.665 0.99134 1
0.865384 0.134363 1
0.755 0.99134 1
0.952154 0.156816 1
0.845 0.99134 1
1.03896 0.180029 1
0.935 0.99134 1
0.519751 0.0400611 1
1.12543 0.203805 1
1.025 0.991339 1
0.00762384 0.424746 1
1.21288 0.225681 1
0.00840695 0.605061 1
1.115 0.991339 1
0.396195 0.991445 1
1.29897 0.249814 1
1.205 0.991339 1
1.38387 0.273319 1
1.285 0.991339 1
1.46306 0.293433 1
1.365 0.99134 1
1.445 0.99134 1
1.53993 0.314377 1
0.345 0.00805404 1
1.52526 0.99168 1
1.61704 0.335037 1
0.00866025 0.345 1
1.605 0.99159 1
1.69463 0.355426 1
1.9911 0.680989 1
0.00866026 0.685 1
1.685 0.991341 1
0.315 0.99134 1
1.77143 0.378175 1
0.00849293 0.275225 1
0.274927 0.00861001 1
0.450862 0.0228205 1
1.99198 0.749587 1
0.245297 0.9916 1
1.75617 0.991842 1
1.99204 0.611627 1
0.008719 0.75442 1
1.82898 0.391175 1
0.213645 0.00926205 1
0.0094357 0.213516 1
1.99094 0.808168 1
0.185 0.99134 1
1.8159 0.991629 1
0.00891952 0.814633 1
1.99103 0.551425 1
0.155 0.00866026 1
1.87753 0.404842 1
0.00848634 0.164855 1
1.99029 0.858445 1
0.135 0.991415 1
1.86501 0.991331 1
0.00866025 0.865 1
0.00899966 0.11418 1
1.92533 0.418011 1
0.105 0.00810183 1
1.905 0.991342 1
0.385065 0.00916352 1
0.0084819 0.465279 1
1.645 0.991595 1
0.00908763 0.556055 1
1.565 0.991586 1
1.40586 0.991741 1
1.48527 0.991671 1
1.325 0.991339 1
1.245 0.991339 1
1.165 0.991339 1
1.075 0.991339 1
0.985298 0.991694 1
0.895 0.99134 1
0.805 0.99134 1
0.715 0.99134 1
0.625 0.99134 1
0.535 0.99134 1
0.445 0.99134 1
0.00940363 0.385082 1
0.00935039 0.643984 1
0.355 0.991443 1
0.566625 0.0526447 1
0.643128 0.0743593 1
0.730463 0.0969072 1
0.816739 0.120735 1
0.903163 0.144057 1
0.990709 0.166169 1
1.07703 0.189443 1
1.16418 0.21401 1
1.25079 0.237362 1
1.33679 0.259345 1
1.42538 0.283809 1
1.5009 0.303087 1
1.57948 0.32618 1
1.65688 0.346214 1
1.73283 0.365572 1
1.99147 0.512425 1
1.99064 0.89548 1
0.095 0.99134 1
0.00920197 0.903926 1
0.00866025 0.075 1
1.99206 0.935461 1
0.0636286 0.0094216 1
1.99165 0.473122 1
0.055763 0.989761 1
1.93518 0.991632 1
1.78593 0.991623 1
1.72541 0.991819 1
1.80041 0.383368 1
0.315 0.0086602 1
0.00939421 0.315412 1
0.245 0.00866025 1
0.186711 0.00713009 1
0.0100277 0.245517 1
0.00830743 0.715 1
0.285 0.991434 1
0.00927446 0.783679 1
0.215753 0.98992 1
0.00866025 0.935 1
0.490377 0.0329089 1
1.99251 0.709334 1
1.99247 0.650332 1
1.99274 0.777776 1
1.99282 0.581869 1
0.423801 0.0141081 1
1.9544 0.425426 1
0.00896477 0.0447408 1
1.96501 0.991345 1
0.00867867 0.966137 1
0.033647 0.00939104 1
1.99041 0.964323 1
1.97366 0.430581 1
1.9062 0.412513 1
1.845 0.99134 1
1.885 0.991342 1
1.85862 0.399665 1
1.705 0.99134 1
1.75149 0.371168 1
1.665 0.99134 1
1.71343 0.360862 1
0.365001 0.00865976 1
0.00889595 0.443882 1
0.00866025 0.485 1
1.625 0.991593 1
1.585 0.991588 1
1.545 0.991583 1
1.50553 0.99207 1
1.46554 0.991826 1
1.38557 0.99181 1
1.425 0.991339 1
1.345 0.991339 1
[...]
CELL_DATA 38566
SCALARS density float
LOOKUP_TABLE default
3.89502
2.25673
1.22238
3.88641
1.22238
2.25628
1.22238
2.28221
2.24003
1.22238
1.22238
1.22238
1.22238
1.22238
2.26441
3.89566
2.25542
1.22238
2.28181
1.22238
2.25413
1.22238
2.2822
2.25113
1.22238
1.22238
2.26336
1.22238
2.24901
2.27153
2.27134
2.25372
2.25438
1.22238
2.25433
1.22238
2.23984
1.22238
1.22238
2.2643
2.26209
1.22238
2.26429
2.26024
1.22238
1.22238
1.22238
2.25911
2.25908
1.22238
2.27438
1.22238
1.22238
2.26447
2.26549
1.22238
2.26043
1.22238
1.22238
1.22238
1.22238
1.22238
1.22238
1.22238
2.25841
2.2595
1.22238
2.74834
1.22238
1.22238
2.25092
1.28357
1.59063
2.25932
2.26276
1.22238
2.26014
1.22238
1.22238
1.22238
2.26326
2.26336
2.26254
2.26303
1.22238
1.22238
2.25945
2.2611
1.22238
1.22238
2.26422
1.22238
1.22238
1.22238
1.22238
1.22238
2.2554
1.22238
3.89204
1.22238
2.25843
1.22238
2.26047
2.26035
2.25899
2.26145
1.22238
3.89571
1.22238
1.22238
2.26322
2.26429
3.89539
2.26118
1.22238
1.22238
2.25588
1.22238
2.26063
1.22238
1.22238
1.22238
2.25553
2.25874
1.22238
2.25261
1.22238
2.25884
1.22238
2.25618
2.25894
1.22238
1.22238
2.254
2.25882
1.22238
2.25712
3.62952
2.26445
3.6612
1.22238
1.22238
2.25623
1.22238
2.26677
2.26381
2.27711
2.28179
1.22238
1.22238
2.26084
1.22238
1.22238
1.22238
1.22238
1.76562
1.22238
1.22238
1.22238
1.22238
1.22238
1.22238
1.22238
1.22238
1.22238
1.22238
1.22238
1.22238
1.22238
1.22238
1.22238
1.22238
2.26296
1.22238
1.22238
1.22238
1.22238
1.22238
1.22238
1.22238
1.22238
1.22238
1.22238
1.22238
1.22238
1.22238
1.22238
1.22238
1.22238
1.22238
1.22238
1.22238
1.22238
1.22238
1.22238
1.22238
1.22238
1.22238
1.22238
1.22238
1.22238
1.22238
1.22238
1.22238
1.22238
1.22238
1.22238
1.22238
1.22238
1.22238
1.22238
1.22238
1.22238
1.22238
1.22238
1.22238
1.22238
1.22238
1.22238
1.22238
1.22238
3.88137
2.26417
1.22238
1.22238
1.22238
2.26342
1.22238
1.22238
1.22238
1.22238
1.22238
1.22238
1.22238
2.29354
1.22238
1.22238
1.22238
1.22238
1.22238
1.22238
1.22238
2.25112
1.22238
1.22238
1.22238
1.22238
1.22238
1.22238
1.22238
1.22238
1.22238
1.22238
1.22238
1.22238
1.22238
2.25252
1.22238
2.25089
1.22238
1.22238
1.22238
1.22238
2.26019
3.89326
2.24897
2.24919
2.26055
2.35932
1.22238
1.22238
2.28234
3.89681
2.2588
3.89642
2.2945
1.22238
2.25014
2.24831
2.26278
2.28234
2.26263
2.25043
3.89494
2.26168
2.25624
2.25551
1.22238
2.25099
2.31517
3.89511
2.25703
2.25976
2.24794
3.90681
1.22238
1.22238
2.26385
1.22238
1.22238
2.24881
3.89652
2.2638
2.98229
3.88969
1.22238
1.22238
1.22238
1.22238
3.723
1.22238
2.26051
2.27547
2.27808
2.26073
1.22238
1.22238
1.22238
1.22238
3.91313
1.22238
1.22238
1.22239
1.22239
1.22238
2.25539
1.22248
1.22248
1.22238
1.22312
1.22311
2.26275
1.22785
1.22778
2.23844
2.25926
2.25811
1.22238
1.22238
2.26097
1.22238
2.28233
2.28233
1.22238
2.28233
2.24896
1.22238
2.26541
2.25856
1.22238
1.22238
1.22238
2.25858
2.26105
2.28129
3.92643
3.89561
2.25852
2.28234
3.89919
2.2505
3.89605
1.22238
1.22238
2.24602
2.26415
2.26426
2.72006
2.25654
2.26033
1.22238
1.22238
3.79409
1.22238
2.24929
1.22238
1.22238
2.28235
1.22238
1.22238
1.22238
1.22238
1.22238
3.89563
2.25679
1.22238
1.22238
2.26507
2.26255
1.22238
1.22238
1.22238
2.28536
1.22238
1.22238
2.28216
1.22238
2.31599
1.22238
1.22238
1.22238
2.25965
2.26154
1.22238
2.71934
1.22238
1.22238
2.26273
1.22238
1.22238
3.89552
3.8958
2.2566
2.25518
1.22238
1.22238
1.22238
1.22238
1.22238
2.26123
2.28193
1.22238
3.89606
3.89963
2.28233
2.26544
1.61993
1.22238
2.26207
3.90891
1.22238
1.22238
2.25087
3.89541
2.25805
3.89565
2.25507
1.22238
1.22238
1.22238
1.22238
3.89581
3.8956
2.26036
2.28212
1.22238
1.22238
3.89577
1.22238
3.89528
3.89516
3.89414
1.22238
1.22238
2.25841
1.22238
3.89544
1.22238
3.89468
2.2713
3.89508
3.89486
3.89092
1.22238
1.22238
1.22238
2.26474
1.22238
1.22238
1.22238
3.89546
2.26129
1.22238
1.22238
2.26314
2.28237
1.22238
2.25768
1.22238
1.22238
2.26316
2.26553
2.24568
1.22238
1.22238
2.28238
1.22238
2.88988
1.22238
2.25533
1.22238
2.2741
1.22238
2.26091
3.27241
1.22238
2.26689
1.22238
1.22238
3.37964
2.26572
2.05832
3.87192
2.28234
1.22238
1.22238
2.04262
2.28233
2.25698
1.22238
2.26149
2.25756
1.22238
3.85912
1.22238
1.22238
1.22238
1.22238
1.22238
1.22238
2.26391
2.26332
3.60821
1.22238
1.22238
1.22238
2.25192
2.28109
1.22238
1.22238
2.24967
2.25812
2.26386
2.3124
2.26276
2.28226
3.90811
2.28233
1.22238
2.26575
1.22238
3.89962
1.22238
1.22238
1.22238
1.22238
1.22238
3.88915
1.22238
2.27834
2.28227
2.25003
2.26255
2.25258
2.27707
2.26699
1.22238
2.27875
1.22238
2.25937
2.2823
1.22238
2.28231
2.2823
2.28716
2.2632
1.22238
1.22238
2.26057
1.22238
2.28231
2.28232
1.22238
1.22238
1.22238
1.22238
2.28234
2.25198
1.22238
2.28223
2.25772
2.28253
1.22238
2.25942
1.22238
1.22238
2.28258
1.22238
1.22238
2.26223
2.26077
2.24977
2.24315
1.22238
3.90501
2.28244
2.28243
2.26258
2.28233
1.22238
2.2841
2.28306
1.22238
1.22238
1.22238
2.2824
1.22238
2.2824
1.22238
2.28234
2.28229
1.22238
2.25492
1.22238
1.22238
2.26093
1.22238
1.22238
2.28234
2.28128
2.28233
2.28233
2.28234
1.22238
1.22238
2.28234
1.22238
1.22238
2.28233
2.25394
2.26275
2.28229
1.22238
1.22238
2.2823
2.24924
2.24921
1.22238
1.22238
1.22238
1.22238
1.22238
1.22238
1.22238
1.22238
1.22238
2.26019
2.28235
2.26101
1.22238
1.22238
1.22238
1.22238
1.22238
2.28236
1.22238
1.22238
3.89535
2.28239
2.25326
3.89556
2.25959
2.25958
2.28232
2.26422
2.28227
1.22238
1.22238
2.28235
2.28232
2.26797
2.25264
1.22238
2.26385
2.28234
1.22238
1.22238
2.28233
3.8949
2.28233
3.08307
2.2824
1.22238
2.28238
1.22238
1.22238
3.89489
2.2757
2.2823
2.28209
2.28207
2.28233
2.26279
2.28212
2.2821
2.28239
2.28242
1.22238
1.22238
3.89627
3.89531
2.26418
2.28233
2.28236
3.89432
2.28233
1.22238
2.28249
3.89637
2.28233
3.89444
2.2799
2.2501
3.89634
3.89653
1.22238
2.28235
2.28233
1.22238
1.22238
2.26546
2.28236
2.25306
2.28195
2.28227
1.22238
1.22238
2.28229
2.28235
3.90039
2.28246
2.25883
1.22238
1.22238
2.28237
3.85313
1.22238
2.28222
3.88122
2.27976
2.28229
2.2824
2.28233
2.28251
1.22238
1.22238
1.22238
1.22238
2.28217
2.28231
2.26391
2.2824
2.19235
2.28233
1.22238
1.22238
1.22238
2.28148
2.25513
1.22238
2.28237
1.22238
2.27849
2.28224
1.22238
1.22238
2.28239
2.28028
1.22238
2.2819
2.28234
2.28237
2.28232
2.28233
2.25551
2.28228
2.28208
2.25168
1.22238
1.22238
2.25617
2.28233
1.22238
2.28237
1.22238
2.28216
2.27643
1.22238
1.78082
2.28223
1.22238
2.28237
1.22238
2.28238
2.28243
2.28237
2.48476
1.22238
2.28228
1.22238
2.26788
2.74499
2.28238
2.28237
2.27292
2.28227
1.22238
2.28231
2.28229
2.28655
2.2947
2.28229
1.22238
1.22238
1.22238
2.28238
1.22238
2.25896
1.22238
1.22238
1.22238
1.22238
2.28233
2.28231
1.22238
2.28238
1.22238
2.28235
2.25389
1.22238
2.26025
1.22238
2.28235
1.22238
1.22238
2.28234
2.28239
2.28255
2.52017
2.25551
1.22238
2.28233
2.28232
2.28231
2.28237
2.28234
2.25435
2.26286
2.25509
2.26651
1.22238
2.26713
1.22238
3.8951
1.22238
2.28234
2.28231
1.22238
2.28225
2.25824
1.22238
1.22238
2.28242
1.22238
2.28229
1.22238
2.28269
2.27788
1.25872
2.28233
1.25915
2.28236
1.22238
2.28233
2.26977
1.22238
1.22238
1.22238
2.28223
2.28233
2.28229
2.25622
2.28065
1.22238
1.22238
2.28234
2.28224
2.28234
1.22238
2.28232
2.27975
2.28233
2.2823
2.28193
2.26677
2.28233
1.22238
2.28239
1.22238
1.22238
2.28233
2.28163
1.22238
2.26171
2.28207
1.22238
2.28231
2.28231
2.28231
2.28229
2.28234
2.28235
1.22238
3.89491
2.28213
1.22238
2.28206
3.89539
2.28225
1.22238
2.28234
1.22238
2.21056
2.28228
1.22238
2.27749
2.28232
1.22238
2.28232
2.28233
1.22238
1.22238
1.22238
1.22238
2.27775
2.26681
2.2823
1.22238
2.28225
2.26439
2.2824
2.28228
2.28234
1.49844
1.22238
2.28232
2.28241
2.28191
1.68586
2.28241
2.28245
2.25065
1.22238
2.2814
2.28218
1.22238
2.28216
2.28245
1.22238
2.2628
2.28241
2.28217
1.22238
2.28242
2.26368
2.28242
2.28242
1.22238
1.32102
1.22238
2.28241
2.26368
2.28233
1.22238
2.27488
2.28241
2.28226
2.28235
2.28232
1.22238
1.22238
1.22238
2.28049
2.28233
1.22238
2.28231
2.12296
1.22238
1.96289
2.28168
2.28226
2.28234
1.22238
2.28231
2.27527
2.28239
3.89536
1.22238
2.28238
2.27521
2.28237
2.28237
2.28237
2.28236
1.34529
2.27565
2.28233
1.22238
2.27559
1.22238
2.25261
2.28237
1.27315
2.2824
2.24811
2.2237
2.28234
2.28236
2.25892
2.26789
1.22238
2.28233
1.22238
2.28241
2.28238
2.28233
1.8753
2.28233
2.28233
1.73651
2.25334
1.22238
1.22238
2.28239
1.22238
2.28235
2.28235
2.28234
2.28249
2.2824
2.28232
2.2824
2.28238
2.2825
2.28232
2.2823
1.30508
2.28238
2.27149
2.28242
1.22238
1.2224
1.22238
1.22238
2.28233
1.22238
2.2782
2.28236
1.22864
2.27816
2.29204
2.2862
1.22238
2.28237
2.28232
1.22238
2.28239
1.22238
2.28239
3.01238
2.28245
2.26235
1.22238
2.28234
2.28224
2.28235
2.28232
2.28195
2.28243
1.22238
1.22238
2.27784
2.23965
2.28233
1.22238
1.22238
1.22247
2.28231
1.22238
2.28224
1.22238
2.28233
2.28163
2.27181
2.28185
2.28229
2.28226
1.22238
2.27882
1.22238
2.28217
2.30778
1.22238
1.22238
1.22238
2.28244
2.25548
2.28252
2.28168
2.2582
2.27633
1.22238
1.22238
1.22238
1.22238
1.22238
1.22238
2.28251
2.28244
2.28224
1.22238
1.22238
1.22238
1.22238
2.28246
2.28247
1.22252
2.25921
2.28154
2.28243
2.25694
2.28232
2.28231
2.28231
1.2226
2.28012
1.22238
1.22238
1.22238
2.28237
2.28233
1.22238
1.22238
2.28236
2.28233
2.28214
1.2232
2.27994
1.94635
2.28234
1.22238
2.28231
1.36573
2.28234
1.22238
2.28234
1.22238
2.28208
2.2823
1.22238
2.28227
2.26153
2.28232
2.26155
2.28234
2.25601
3.85223
2.22408
1.22238
2.2823
1.22238
1.22238
1.22238
2.28234
3.89348
2.2823
1.22238
2.28229
2.28236
1.23443
2.2822
1.22238
1.22238
2.28156
2.26364
2.28235
2.21803
2.27883
2.28229
2.28005
2.28233
2.26114
2.27705
1.22238
3.89397
1.22238
1.22238
2.28236
2.19004
1.22238
1.22238
2.13783
1.22238
1.22238
1.70502
1.22238
1.22239
1.93094
1.22239
1.22239
3.63075
2.21994
2.28231
2.26789
2.22749
1.77165
3.79467
2.25318
1.22238
1.22238
1.22238
1.5507
1.22238
2.27972
2.28239
1.22238
1.22238
2.25091
2.25545
1.22238
1.22238
2.24787
1.22238
1.44317
1.77567
2.12896
1.22238
1.22238
1.22238
1.63366
2.28239
1.22238
1.22238
2.2824
1.84629
2.15477
2.26672
1.8456
2.24898
1.22238
1.98755
2.25762
2.2819
1.77006
2.28235
1.22238
2.26013
1.22238
2.28235
2.26562
1.22239
2.2747
1.22238
1.29307
1.24983
2.00949
2.28232
1.22238
1.22238
1.22238
1.22238
2.27841
1.31643
2.27744
1.22238
1.2233
1.55464
1.22495
1.38563
2.28234
1.22238
1.22238
1.2225
1.22238
2.28226
2.26113
1.22243
1.22238
1.22238
2.25861
1.22238
2.24208
1.24197
2.28232
1.22948
1.22238
1.29225
2.28242
2.18437
1.38761
1.22238
2.25479
2.27935
1.22238
2.18482
2.28177
1.22238
1.22238
1.22238
1.22238
1.22238
2.28063
2.2788
2.27973
1.22331
1.22271
2.27594
1.22238
2.27761
2.28153
1.22238
1.22238
1.22238
2.28211
1.22239
1.22238
1.22238
1.22238
1.22492
1.22238
1.22957
2.28211
2.27601
2.27805
1.22238
1.22238
1.22238
1.22238
2.28234
1.22238
2.18729
1.22238
2.27828
2.28205
1.22238
1.22238
1.22238
2.28205
1.22238
1.53623
1.22238
1.22238
1.2225
1.22272
1.22238
1.22238
2.28236
2.27924
2.28063
1.22238
1.22238
2.28197
2.28197
1.22238
1.22239
1.22238
1.25722
2.28056
1.22241
1.22238
2.26871
1.22238
1.22238
2.28031
1.22238
1.22238
2.28229
2.28188
2.28187
2.14642
1.22238
2.27548
2.27644
2.27805
2.28192
1.22238
2.26519
2.28237
2.53619
2.83433
2.28233
2.0657
1.22238
2.29573
1.22238
2.28176
1.22238
2.25329
1.51808
1.22238
2.27825
2.27779
1.22238
2.28202
1.22239
3.89981
1.22239
2.28169
2.27631
1.22238
2.25064
1.22238
1.22238
1.22238
1.22238
1.22238
1.22238
2.2127
2.27482
1.22241
1.22238
2.28047
1.22238
1.22238
1.22238
2.28235
1.25455
2.28138
1.22238
1.22238
1.22238
1.22246
1.22238
2.28234
1.22238
1.22246
1.22238
1.22238
1.22238
1.22238
1.22238
1.22238
1.22238
1.22238
2.28163
2.28009
1.22238
1.22238
2.28027
2.28227
1.22238
1.22238
1.22238
1.22238
1.22238
1.22238
1.22238
1.22238
1.66839
1.22239
1.22238
1.22238
2.2773
2.28233
2.28241
1.22238
2.28239
2.28241
1.22238
2.28211
2.27801
1.22238
1.22238
1.22238
1.22238
2.27862
1.22238
1.28584
1.22238
2.28238
1.8283
2.27907
2.26026
1.47926
2.27802
2.28121
1.22238
2.28237
2.27078
1.22239
2.28137
1.22238
2.27996
2.28232
2.2259
1.22238
1.22238
2.28234
1.22238
1.22238
1.22238
1.22238
1.22238
2.2766
2.27756
3.78042
2.28148
2.28128
1.22238
2.27819
1.22238
1.22238
2.279
2.27961
2.27906
2.28187
2.28244
1.22238
1.22238
2.28171
1.22238
1.22238
1.22238
1.22238
1.22238
1.22238
2.27756
1.22238
2.2823
1.22238
2.28105
2.28233
1.22238
2.28218
1.22238
1.22238
1.22238
2.27842
2.28232
1.22238
2.28075
2.2821
2.27625
2.28037
2.28194
2.28051
2.27594
2.28232
2.2768
1.22238
1.22463
1.22238
2.2795
2.28187
2.28223
1.22238
2.27997
1.22238
1.22238
1.98652
1.22238
1.22238
2.28239
1.22238
1.22238
1.28152
2.28232
1.22238
2.28239
2.27775
2.27714
1.22238
1.22238
2.25972
1.22238
3.83833
1.22238
1.22238
1.22238
1.22238
2.28039
2.27994
1.22238
1.22238
1.22238
2.25893
2.2589
1.22238
2.28065
2.28144
2.27796
1.22238
1.22238
1.22238
1.22238
2.28145
1.22238
2.28249
2.28018
1.22238
2.27691
1.22238
2.27673
1.83451
2.28161
2.28166
2.28164
2.28234
1.22238
2.28127
2.28234
1.22239
2.2825
2.2802
2.28103
2.28237
1.22238
1.22238
2.26213
1.22238
1.22238
2.28231
1.22238
2.2823
1.22238
2.27689
2.28238
2.2822
2.28227
1.22238
2.24832
1.22238
1.2224
1.22238
2.2766
1.22238
1.22238
1.22238
1.22238
2.27973
1.22238
1.22238
1.22243
2.25071
3.89474
2.2815
1.22238
2.28151
1.22238
2.28239
1.22238
1.22238
1.22238
2.2819
2.28182
1.22238
1.22238
1.22238
1.22238
2.27632
2.28239
3.89341
1.52192
1.22238
1.22238
2.28187
1.22238
2.28169
1.22238
1.22238
1.22238
2.27728
2.28588
1.22238
1.22238
2.42188
1.22238
1.22238
1.22238
1.22238
2.28097
1.22238
1.22238
2.28188
1.25495
2.27992
2.28172
1.22238
1.22238
2.28182
1.22238
2.2819
2.28183
1.22238
1.22238
1.22238
1.22238
1.22238
1.22238
2.27847
2.28119
2.27655
1.22238
2.28225
2.27674
1.36247
2.28097
2.28238
2.28186
1.22238
1.22238
2.27886
2.2789
2.28192
2.28234
3.9202
1.22238
2.27863
2.27869
2.28193
2.28189
1.22238
2.28214
2.28157
2.28215
1.22238
2.27219
2.27921
2.28233
1.71055
1.22238
2.28221
1.48258
1.22238
1.22238
2.27935
1.22238
1.22238
1.22238
1.22238
1.22238
1.22238
1.22238
1.28608
2.11314
1.22466
1.2228
1.22238
1.22238
2.28202
1.22238
1.22238
2.28207
2.27977
2.28108
1.22238
1.22238
1.22238
1.22238
1.22238
1.22238
2.28158
1.22238
2.27991
2.28007
2.28233
1.23042
2.2801
2.28178
2.28041
2.28024
2.27623
2.28085
1.22238
1.44608
2.27884
1.22238
1.22238
1.22238
2.28188
2.28179
1.22238
1.22238
1.22238
1.22238
1.28238
2.2801
1.22238
1.22241
1.22238
1.22238
2.28224
1.22238
2.27532
1.2224
1.22238
1.23471
1.22238
2.28039
1.22238
1.2224
2.27527
1.22238
1.22238
2.26836
2.28002
2.26354
2.27986
3.90816
2.28218
1.22238
1.22238
2.28052
1.22238
2.27978
1.22238
1.22238
2.28054
1.22238
1.22238
2.28236
1.22238
1.22238
2.27778
1.22238
2.2799
1.22238
1.22238
1.22238
1.22238
1.22238
2.28035
2.28169
2.27595
1.67184
2.27785
1.22238
1.22238
1.22238
1.22238
1.22238
2.28163
1.22238
2.28215
1.22238
2.28235
1.22238
2.28179
1.22238
2.28229
2.28215
2.28192
1.24173
1.22238
1.22238
2.28152
2.28161
2.2817
2.28187
2.28186
2.28191
2.28189
1.2224
2.28178
2.28192
1.22238
2.28186
1.22238
1.22238
1.22238
1.22238
1.22238
2.28225
2.28231
1.22243
2.25856
2.25861
1.22238
1.68207
1.67662
2.27883
1.22238
1.22238
1.22238
2.27887
2.28207
1.22238
1.22238
1.22238
3.92729
2.27953
2.27707
1.22238
2.28222
2.2797
2.27513
2.28062
2.28209
1.22238
2.28231
1.22238
1.22238
2.28168
2.2813
1.32969
1.22238
1.22238
1.22239
2.27872
2.25732
2.27745
1.22238
1.22238
1.22238
1.2228
1.22238
1.22238
2.2787
2.27911
1.22238
2.27968
2.28205
1.22238
2.28182
1.22238
2.2823
1.22238
1.22238
2.27071
1.22238
2.28095
1.22238
2.28177
2.25333
1.22238
1.22238
2.27632
2.28138
2.28238
2.28203
2.27773
1.22238
1.22238
1.22238
2.28049
2.23738
2.26366
2.26387
1.66643
2.24891
1.22238
1.40218
2.26457
2.25793
1.22238
2.27516
1.22238
1.33734
2.27506
1.89355
1.22238
1.22238
1.22238
1.22238
1.22238
1.22238
2.28098
2.27878
2.28182
1.22238
1.25399
1.30254
1.22238
1.22238
2.28017
2.28033
2.28226
1.30357
2.28029
1.22238
1.22238
2.28206
1.22238
1.22238
1.2685
1.22241
1.22243
2.18385
2.24071
1.22238
1.22241
1.22238
1.22238
1.22238
2.28186
1.22238
2.28232
2.27816
2.28236
1.22238
1.22238
2.27956
1.22238
2.28174
2.27981
2.26652
1.22238
2.28137
1.22238
2.27924
1.22238
3.03658
1.22238
1.89108
2.282
2.31439
1.22238
1.22238
2.07596
1.22238
2.28025
1.22238
1.22238
1.22238
1.22238
2.26311
1.22238
1.22238
1.22238
1.2225
1.22238
1.22238
1.22238
1.22238
2.28178
1.22238
2.27675
1.22238
2.27749
2.28237
1.22238
1.22238
2.27859
2.27978
1.22238
1.22238
1.22238
1.22238
2.27771
2.27624
1.22238
1.22238
2.28003
1.22238
1.22445
1.22309
1.22274
1.22238
1.22238
1.22238
1.22238
1.22238
1.22238
1.50847
2.28166
1.4046
2.28005
1.22238
2.28234
2.2755
2.27638
1.22238
1.22238
1.22238
2.26961
1.22238
2.28185
1.22238
1.22238
1.22238
1.22239
1.22239
3.79163
2.28191
2.13217
1.22238
2.15008
1.22238
2.28148
2.28153
2.27814
1.22243
1.22238
2.28147
2.28158
1.22238
1.22238
2.277
1.22238
2.27461
2.27653
2.28191
1.22238
1.22238
1.22238
2.28153
2.28267
1.25591
2.28233
2.27892
2.27947
1.22238
2.27928
1.22238
2.28194
2.28194
1.22238
1.22238
3.89438
2.28212
2.27908
2.26419
2.27762
2.28184
2.28231
1.26884
1.44214
2.28026
1.22238
1.23994
2.28224
2.28232
1.22238
2.28185
2.28191
2.28225
1.37358
2.06931
1.22238
1.22238
1.22238
1.22238
2.28166
1.22238
2.28231
2.28232
1.22238
2.28227
2.25703
2.28185
2.27492
1.23512
2.28301
1.22238
2.25946
1.22238
1.22238
1.22261
1.22238
2.27933
1.22238
2.28238
1.22238
1.22238
1.22238
1.22238
2.27556
1.22238
2.28193
2.2818
1.22238
2.28238
2.28234
2.28232
2.2819
2.26967
2.28231
2.28139
2.23937
2.25613
1.22238
1.22238
2.28181
1.2599
2.26424
1.56609
1.22238
2.27949
1.22238
1.22238
1.22238
2.26844
2.28231
1.22287
1.22238
2.2783
2.09328
2.27835
1.22311
2.26515
2.26904
1.22238
1.22238
1.22238
1.22238
1.22238
1.22238
1.24923
1.22238
1.22238
1.22238
2.27666
2.13644
2.28016
1.97924
1.75908
1.22238
1.98552
2.28234
2.27588
2.28234
1.22238
1.22238
1.22238
3.89995
1.2224
2.28242
1.22246
2.27925
2.07119
2.28242
2.28234
1.22246
2.2767
1.22238
1.22238
2.27677
1.22238
2.28246
1.22238
1.22238
1.22238
1.22238
1.22238
1.22238
1.22238
2.27873
1.22238
2.28236
1.22238
2.28166
1.22238
1.22238
2.28234
1.22238
1.6411
2.28233
2.18667
2.278
1.23049
1.22238
2.27584
1.22238
3.61315
1.22238
1.22238
1.22238
3.89635
1.22334
1.22238
2.28231
1.22312
2.27589
2.28154
2.28101
2.27832
3.26721
1.22242
1.22238
3.89629
1.24959
1.7343
2.26394
1.46792
2.27876
2.28173
1.89718
2.27617
1.23941
1.22238
2.2823
2.28221
2.28213
2.28242
2.27725
1.22238
2.28214
1.91716
2.27757
1.24467
1.22238
1.22238
1.22238
2.27952
2.28196
2.15512
1.22238
1.22238
1.37556
2.28252
2.26324
2.28106
2.73171
1.37383
1.28689
1.22238
1.22484
2.25654
2.28189
1.22238
1.22238
2.28202
1.29364
2.28237
2.28231
2.27806
1.22238
1.22238
2.28222
1.22239
2.50747
1.22238
2.28115
2.25208
2.28181
1.74296
2.25208
1.22238
2.25828
2.27428
2.22348
2.26065
2.27685
2.25729
2.22531
2.28178
1.22238
1.22238
1.22238
2.27975
1.24496
2.2728
1.40998
1.2265
2.27804
2.28129
1.22238
1.22238
1.22238
2.28147
1.22238
2.27695
2.28128
2.28238
1.22238
1.22401
1.22692
2.28201
1.22238
1.22254
1.22243
1.22238
2.28232
2.28232
1.22238
2.27523
2.27556
2.28229
1.22238
1.22238
2.27986
2.28019
1.22259
2.28233
2.27903
2.28232
2.27842
3.33565
1.22238
1.22298
1.22242
1.22238
1.22241
1.22238
1.22239
1.22238
1.22238
2.36761
1.22238
2.27246
1.22238
1.22241
1.22238
1.22238
1.22246
2.18192
1.22238
1.22238
1.22238
2.27122
1.22285
1.22238
2.27866
1.22238
1.22238
1.22238
1.2224
1.22238
1.22238
1.22289
1.22238
1.22266
1.22239
1.22258
1.22238
1.22238
1.22238
1.22239
2.27394
1.22238
1.22238
2.28249
1.22238
1.22238
3.83872
1.22238
1.22238
1.22238
2.27925
1.22238
2.28219
1.22238
1.22238
2.28229
1.22238
1.22238
1.22238
1.22238
2.28227
2.27775
2.28031
2.28252
2.49222
2.28181
1.22238
1.22238
1.22238
1.22238
1.22238
2.26395
1.22238
1.22238
2.28187
1.22238
1.22238
1.22238
2.28186
2.27243
1.22238
1.22238
2.28197
2.27725
1.22238
2.28157
1.22238
2.2773
2.03539
1.22238
1.22238
1.22238
1.22238
1.22431
1.22238
2.28136
2.27639
2.28181
2.2824
2.25553
1.22239
1.22238
2.28121
2.27649
2.28232
2.28181
1.22238
2.28247
2.27846
1.2224
2.28075
1.22238
1.22238
1.22238
1.22238
2.2823
1.22238
2.28242
1.22238
1.22238
2.28242